# Force and moment coefficients
# dragDir     : (1.000000e+00 0.000000e+00 0.000000e+00)
# sideDir     : (0.000000e+00 0.000000e+00 -1.000000e+00)
# liftDir     : (0.000000e+00 1.000000e+00 0.000000e+00)
# rollAxis    : (1.000000e+00 0.000000e+00 0.000000e+00)
# pitchAxis   : (0.000000e+00 0.000000e+00 -1.000000e+00)
# yawAxis     : (0.000000e+00 1.000000e+00 0.000000e+00)
# magUInf     : 1.000000e+00
# lRef        : 1.000000e+00
# Aref        : 2.000000e+00
# CofR        : (0.000000e+00 0.000000e+00 0.000000e+00)
#
# Time        	Cd            	Cd(f)         	Cd(r)         	Cl            	Cl(f)         	Cl(r)         	CmPitch       	CmRoll        	CmYaw         	Cs            	Cs(f)         	Cs(r)         
40.005        	-1.521168e+02	5.781546e+01	-2.099323e+02	-2.677477e+02	8.834239e+02	-1.151172e+03	1.017298e+03	1.338739e+02	-7.605840e+01	-6.786806e-17	-7.605840e+01	7.605840e+01
40.01         	-1.867072e+02	5.114470e+01	-2.378519e+02	-2.889966e+02	2.644481e+02	-5.534447e+02	4.089464e+02	1.444983e+02	-9.335362e+01	-7.334108e-17	-9.335362e+01	9.335362e+01
40.015        	-1.960686e+02	5.433108e+01	-2.503997e+02	-3.047308e+02	2.955955e+02	-6.003263e+02	4.479609e+02	1.523654e+02	-9.803432e+01	-7.779534e-17	-9.803432e+01	9.803432e+01
40.02         	-2.522152e+02	-3.024117e+01	-2.219740e+02	-1.917328e+02	-3.721072e+03	3.529339e+03	-3.625205e+03	9.586641e+01	-1.261076e+02	-4.701764e-17	-1.261076e+02	1.261076e+02
40.025        	-2.328742e+02	-8.855588e+00	-2.240186e+02	-2.151630e+02	-2.643615e+03	2.428452e+03	-2.536033e+03	1.075815e+02	-1.164371e+02	-5.312386e-17	-1.164371e+02	1.164371e+02
40.03         	-2.060630e+02	2.926633e+01	-2.353294e+02	-2.645957e+02	-8.117337e+02	5.471380e+02	-6.794358e+02	1.322978e+02	-1.030315e+02	-6.636852e-17	-1.030315e+02	1.030315e+02
40.035        	-1.436447e+02	3.495787e+01	-1.786026e+02	-2.135605e+02	3.853977e+01	-2.521002e+02	1.453200e+02	1.067802e+02	-7.182236e+01	-5.314255e-17	-7.182236e+01	7.182236e+01
40.04         	-1.122801e+02	7.444274e+00	-1.197243e+02	-1.271686e+02	-7.741046e+02	6.469360e+02	-7.105203e+02	6.358431e+01	-5.614004e+01	-2.988807e-17	-5.614004e+01	5.614004e+01
40.045        	-9.028164e+01	4.336547e+01	-1.336471e+02	-1.770126e+02	9.145607e+02	-1.091573e+03	1.003067e+03	8.850629e+01	-4.514082e+01	-4.341524e-17	-4.514082e+01	4.514082e+01
40.05         	-9.076909e+01	9.965243e+01	-1.904215e+02	-2.900740e+02	3.216218e+03	-3.506292e+03	3.361255e+03	1.450370e+02	-4.538455e+01	-7.376324e-17	-4.538455e+01	4.538455e+01
40.055        	-8.879891e+01	1.045516e+02	-1.933505e+02	-2.979021e+02	3.440002e+03	-3.737904e+03	3.588953e+03	1.489510e+02	-4.439946e+01	-7.582316e-17	-4.439946e+01	4.439946e+01
40.06         	-1.466482e+02	3.484502e+01	-1.814933e+02	-2.163383e+02	3.579882e+00	-2.199182e+02	1.117490e+02	1.081691e+02	-7.332412e+01	-5.358601e-17	-7.332412e+01	7.332412e+01
40.065        	-1.883766e+02	6.648863e+00	-1.950255e+02	-2.016743e+02	-1.574346e+03	1.372672e+03	-1.473509e+03	1.008372e+02	-9.418830e+01	-4.964437e-17	-9.418830e+01	9.418830e+01
40.07         	-2.137819e+02	-7.830224e+00	-2.059517e+02	-1.981215e+02	-2.421720e+03	2.223599e+03	-2.322660e+03	9.906074e+01	-1.068910e+02	-4.876716e-17	-1.068910e+02	1.068910e+02
40.075        	-1.596170e+02	5.739724e+01	-2.170143e+02	-2.744115e+02	7.937979e+02	-1.068209e+03	9.310037e+02	1.372058e+02	-7.980852e+01	-6.938899e-17	-7.980852e+01	7.980852e+01
40.08         	-9.978338e+01	7.011443e+01	-1.698978e+02	-2.400122e+02	1.913097e+03	-2.153109e+03	2.033103e+03	1.200061e+02	-4.989169e+01	-6.040344e-17	-4.989169e+01	4.989169e+01
40.085        	-6.950985e+01	7.070742e+01	-1.402173e+02	-2.109247e+02	2.251965e+03	-2.462890e+03	2.357428e+03	1.054623e+02	-3.475493e+01	-5.224248e-17	-3.475493e+01	3.475493e+01
40.09         	-8.334442e+01	6.473337e+01	-1.480778e+02	-2.128112e+02	1.871979e+03	-2.084790e+03	1.978384e+03	1.064056e+02	-4.167221e+01	-5.256121e-17	-4.167221e+01	4.167221e+01
40.095        	-3.463482e+01	1.032434e+02	-1.378782e+02	-2.411216e+02	3.937196e+03	-4.178318e+03	4.057757e+03	1.205608e+02	-1.731741e+01	-6.018429e-17	-1.731741e+01	1.731741e+01
40.1          	-9.529384e+01	2.805854e+01	-1.233524e+02	-1.514109e+02	2.558436e+02	-4.072545e+02	3.315490e+02	7.570547e+01	-4.764692e+01	-3.590138e-17	-4.764692e+01	4.764692e+01
40.105        	-4.402910e+01	9.073293e+01	-1.347620e+02	-2.254950e+02	3.331412e+03	-3.556907e+03	3.444159e+03	1.127475e+02	-2.201455e+01	-5.631383e-17	-2.201455e+01	2.201455e+01
40.11         	-5.692084e+01	7.207275e+01	-1.289936e+02	-2.010663e+02	2.439084e+03	-2.640150e+03	2.539617e+03	1.005332e+02	-2.846042e+01	-4.960592e-17	-2.846042e+01	2.846042e+01
40.115        	-7.564807e+01	7.260374e+01	-1.482518e+02	-2.208556e+02	2.264271e+03	-2.485126e+03	2.374699e+03	1.104278e+02	-3.782404e+01	-5.500449e-17	-3.782404e+01	3.782404e+01
40.12         	-7.717877e+01	8.438884e+01	-1.615676e+02	-2.459564e+02	2.725185e+03	-2.971142e+03	2.848163e+03	1.229782e+02	-3.858938e+01	-6.185881e-17	-3.858938e+01	3.858938e+01
40.125        	-9.919678e+01	8.041818e+01	-1.796150e+02	-2.600332e+02	2.338832e+03	-2.598865e+03	2.468848e+03	1.300166e+02	-4.959839e+01	-6.564320e-17	-4.959839e+01	4.959839e+01
40.13         	-1.309885e+02	7.056140e+01	-2.015499e+02	-2.721113e+02	1.611344e+03	-1.883455e+03	1.747400e+03	1.360556e+02	-6.549423e+01	-6.892685e-17	-6.549423e+01	6.549423e+01
40.135        	-1.441566e+02	5.796382e+01	-2.021204e+02	-2.600843e+02	9.601026e+02	-1.220187e+03	1.090145e+03	1.300421e+02	-7.207831e+01	-6.580898e-17	-7.207831e+01	7.207831e+01
40.14         	-1.524879e+02	4.683719e+01	-1.993251e+02	-2.461623e+02	4.221327e+02	-6.682950e+02	5.452138e+02	1.230812e+02	-7.624397e+01	-6.198846e-17	-7.624397e+01	7.624397e+01
40.145        	-1.821874e+02	2.387058e+01	-2.060580e+02	-2.299286e+02	-8.207630e+02	5.908345e+02	-7.057988e+02	1.149643e+02	-9.109370e+01	-5.751223e-17	-9.109370e+01	9.109370e+01
40.15         	-1.568924e+02	1.267776e+01	-1.695701e+02	-1.822479e+02	-1.021120e+03	8.388717e+02	-9.299956e+02	9.112394e+01	-7.844618e+01	-4.455320e-17	-7.844618e+01	7.844618e+01
40.155        	-8.574492e+01	4.766055e+01	-1.334055e+02	-1.810660e+02	1.124858e+03	-1.305924e+03	1.215391e+03	9.053301e+01	-4.287246e+01	-4.426336e-17	-4.287246e+01	4.287246e+01
40.16         	-7.587372e+01	6.436910e+01	-1.402428e+02	-2.046119e+02	1.900271e+03	-2.104883e+03	2.002577e+03	1.023060e+02	-3.793686e+01	-5.078894e-17	-3.793686e+01	3.793686e+01
40.165        	-1.215298e+01	7.091127e+01	-8.306425e+01	-1.539755e+02	2.809379e+03	-2.963354e+03	2.886366e+03	7.698776e+01	-6.076489e+00	-3.732425e-17	-6.076489e+00	6.076489e+00
40.17         	-1.614917e+01	5.790618e+01	-7.405535e+01	-1.319615e+02	2.232926e+03	-2.364888e+03	2.298907e+03	6.598076e+01	-8.074583e+00	-3.140321e-17	-8.074583e+00	8.074583e+00
40.175        	-7.815981e+00	6.072644e+01	-6.854242e+01	-1.292689e+02	2.423786e+03	-2.553055e+03	2.488420e+03	6.463443e+01	-3.907991e+00	-3.092716e-17	-3.907991e+00	3.907991e+00
40.18         	-2.548422e+00	8.182870e+01	-8.437712e+01	-1.662058e+02	3.335850e+03	-3.502056e+03	3.418953e+03	8.310291e+01	-1.274211e+00	-4.096335e-17	-1.274211e+00	1.274211e+00
40.185        	-3.450526e+00	9.424352e+01	-9.769405e+01	-1.919376e+02	3.832914e+03	-4.024852e+03	3.928883e+03	9.596878e+01	-1.725263e+00	-4.805524e-17	-1.725263e+00	1.725263e+00
40.19         	-2.995138e+00	8.445756e+01	-8.745270e+01	-1.719103e+02	3.440712e+03	-3.612622e+03	3.526667e+03	8.595513e+01	-1.497569e+00	-4.274287e-17	-1.497569e+00	1.497569e+00
40.195        	-9.529920e+00	7.689586e+01	-8.642578e+01	-1.633216e+02	3.063351e+03	-3.226673e+03	3.145012e+03	8.166082e+01	-4.764960e+00	-4.039320e-17	-4.764960e+00	4.764960e+00
40.2          	-1.647878e+01	3.988234e+01	-5.636111e+01	-9.624345e+01	1.481425e+03	-1.577668e+03	1.529546e+03	4.812173e+01	-8.239388e+00	-2.239320e-17	-8.239388e+00	8.239388e+00
40.205        	1.865589e+01	3.456242e+01	-1.590653e+01	-5.046895e+01	1.625504e+03	-1.675973e+03	1.650738e+03	2.523448e+01	9.327946e+00	-1.009751e-17	9.327946e+00	-9.327946e+00
40.21         	8.897973e+01	5.828148e+01	3.069825e+01	-2.758324e+01	3.308898e+03	-3.336481e+03	3.322689e+03	1.379162e+01	4.448987e+01	-4.040537e-18	4.448987e+01	-4.448987e+01
40.215        	1.035214e+02	7.990319e+01	2.361820e+01	-5.628499e+01	4.345204e+03	-4.401489e+03	4.373346e+03	2.814249e+01	5.176069e+01	-1.176823e-17	5.176069e+01	-5.176069e+01
40.22         	1.002553e+02	8.919918e+01	1.105613e+01	-7.814305e+01	4.696413e+03	-4.774556e+03	4.735485e+03	3.907153e+01	5.012765e+01	-1.759981e-17	5.012765e+01	-5.012765e+01
40.225        	1.091791e+02	1.321782e+02	-2.299907e+01	-1.551773e+02	6.550417e+03	-6.705595e+03	6.628006e+03	7.758864e+01	5.458957e+01	-3.825986e-17	5.458957e+01	-5.458957e+01
40.23         	3.907772e+01	1.308044e+02	-9.172667e+01	-2.225311e+02	5.784223e+03	-6.006754e+03	5.895489e+03	1.112655e+02	1.953886e+01	-5.632071e-17	1.953886e+01	-1.953886e+01
40.235        	-8.529484e+01	1.109812e+02	-1.962760e+02	-3.072572e+02	3.717191e+03	-4.024448e+03	3.870819e+03	1.536286e+02	-4.264742e+01	-7.898737e-17	-4.264742e+01	4.264742e+01
40.24         	-1.578946e+02	5.306050e+01	-2.109551e+02	-2.640156e+02	6.121719e+02	-8.761875e+02	7.441797e+02	1.320078e+02	-7.894730e+01	-6.730562e-17	-7.894730e+01	7.894730e+01
40.245        	-1.564974e+02	8.582765e+01	-2.423250e+02	-3.281527e+02	1.972193e+03	-2.300346e+03	2.136269e+03	1.640763e+02	-7.824868e+01	-8.426976e-17	-7.824868e+01	7.824868e+01
40.25         	-1.787044e+02	4.024130e+01	-2.189457e+02	-2.591870e+02	-1.129518e+02	-1.462351e+02	1.664167e+01	1.295935e+02	-8.935218e+01	-6.568221e-17	-8.935218e+01	8.935218e+01
40.255        	-1.211457e+02	7.052978e+01	-1.916754e+02	-2.622052e+02	1.704361e+03	-1.966566e+03	1.835464e+03	1.311026e+02	-6.057283e+01	-6.687048e-17	-6.057283e+01	6.057283e+01
40.26         	-4.502058e+01	1.319814e+02	-1.770020e+02	-3.089834e+02	4.983527e+03	-5.292510e+03	5.138019e+03	1.544917e+02	-2.251029e+01	-7.949368e-17	-2.251029e+01	2.251029e+01
40.265        	-7.736713e+01	1.062717e+02	-1.836388e+02	-2.899104e+02	3.600513e+03	-3.890423e+03	3.745468e+03	1.449552e+02	-3.868356e+01	-7.422982e-17	-3.868356e+01	3.868356e+01
40.27         	-9.531401e+01	1.358809e+02	-2.311949e+02	-3.670757e+02	4.626676e+03	-4.993752e+03	4.810214e+03	1.835379e+02	-4.765701e+01	-9.503358e-17	-4.765701e+01	4.765701e+01
40.275        	-1.220312e+02	1.015297e+02	-2.235609e+02	-3.250906e+02	2.946982e+03	-3.272073e+03	3.109528e+03	1.625453e+02	-6.101561e+01	-8.392738e-17	-6.101561e+01	6.101561e+01
40.28         	-1.764443e+02	6.228419e+01	-2.387285e+02	-3.010127e+02	7.987295e+02	-1.099742e+03	9.492358e+02	1.505063e+02	-8.822214e+01	-7.720075e-17	-8.822214e+01	8.822214e+01
40.285        	-1.986277e+02	7.491744e+01	-2.735452e+02	-3.484626e+02	1.103039e+03	-1.451502e+03	1.277270e+03	1.742313e+02	-9.931386e+01	-8.973900e-17	-9.931386e+01	9.931386e+01
40.29         	-2.229675e+02	6.695971e+01	-2.899272e+02	-3.568869e+02	5.422842e+02	-8.991711e+02	7.207276e+02	1.784434e+02	-1.114837e+02	-9.179684e-17	-1.114837e+02	1.114837e+02
40.295        	-1.942508e+02	1.230092e+01	-2.065517e+02	-2.188526e+02	-1.413017e+03	1.194164e+03	-1.303590e+03	1.094263e+02	-9.712541e+01	-5.510664e-17	-9.712541e+01	9.712541e+01
40.3          	-1.806026e+02	2.875369e+01	-2.093563e+02	-2.381100e+02	-6.028487e+02	3.647387e+02	-4.837937e+02	1.190550e+02	-9.030130e+01	-6.004539e-17	-9.030130e+01	9.030130e+01
40.305        	-1.006531e+02	6.533888e+01	-1.659919e+02	-2.313308e+02	1.687186e+03	-1.918516e+03	1.802851e+03	1.156654e+02	-5.032653e+01	-5.848002e-17	-5.032653e+01	5.032653e+01
40.31         	-3.952658e+01	9.438905e+01	-1.339156e+02	-2.283047e+02	3.482555e+03	-3.710859e+03	3.596707e+03	1.141523e+02	-1.976329e+01	-5.781765e-17	-1.976329e+01	1.976329e+01
40.315        	-2.403712e+01	1.063376e+02	-1.303748e+02	-2.367124e+02	4.128120e+03	-4.364833e+03	4.246476e+03	1.183562e+02	-1.201856e+01	-5.995991e-17	-1.201856e+01	1.201856e+01
40.32         	-6.180506e+01	8.348743e+01	-1.452925e+02	-2.287799e+02	2.818432e+03	-3.047212e+03	2.932822e+03	1.143900e+02	-3.090253e+01	-5.750135e-17	-3.090253e+01	3.090253e+01
40.325        	-1.104717e+02	5.958477e+01	-1.700565e+02	-2.296413e+02	1.347225e+03	-1.576866e+03	1.462045e+03	1.148206e+02	-5.523587e+01	-5.764650e-17	-5.523587e+01	5.523587e+01
40.33         	-1.754973e+02	-5.571115e+01	-1.197861e+02	-6.407498e+01	-4.013936e+03	3.949861e+03	-3.981899e+03	3.203749e+01	-8.774865e+01	-1.276397e-17	-8.774865e+01	8.774865e+01
40.335        	-1.420286e+02	-1.152032e+01	-1.305083e+02	-1.189880e+02	-1.872801e+03	1.753813e+03	-1.813307e+03	5.949398e+01	-7.101430e+01	-2.752888e-17	-7.101430e+01	7.101430e+01
40.34         	-9.543209e+01	4.198474e+01	-1.374168e+02	-1.794016e+02	7.710461e+02	-9.504477e+02	8.607469e+02	8.970079e+01	-4.771605e+01	-4.413202e-17	-4.771605e+01	4.771605e+01
40.345        	-1.032048e+02	-7.515887e-01	-1.024533e+02	-1.017017e+02	-1.045735e+03	9.440334e+02	-9.948842e+02	5.085083e+01	-5.160242e+01	-2.284095e-17	-5.160242e+01	5.160242e+01
40.35         	-7.391891e+01	6.148943e+00	-8.006786e+01	-8.621680e+01	-4.667031e+02	3.804863e+02	-4.235947e+02	4.310840e+01	-3.695946e+01	-1.865041e-17	-3.695946e+01	3.695946e+01
40.355        	-7.154354e+01	-6.016607e+00	-6.552693e+01	-5.951032e+01	-9.357662e+02	8.762559e+02	-9.060111e+02	2.975516e+01	-3.577177e+01	-1.135545e-17	-3.577177e+01	3.577177e+01
40.36         	-1.051367e+02	2.427625e+00	-1.075643e+02	-1.099920e+02	-9.247003e+02	8.147083e+02	-8.697043e+02	5.499598e+01	-5.256835e+01	-2.473037e-17	-5.256835e+01	5.256835e+01
40.365        	-1.606402e+02	-4.130091e+01	-1.193393e+02	-7.803834e+01	-3.272115e+03	3.194077e+03	-3.233096e+03	3.901917e+01	-8.032008e+01	-1.634226e-17	-8.032008e+01	8.032008e+01
40.37         	-1.473814e+02	-2.528676e+01	-1.220946e+02	-9.680787e+01	-2.474291e+03	2.377484e+03	-2.425888e+03	4.840393e+01	-7.369070e+01	-2.131215e-17	-7.369070e+01	7.369070e+01
40.375        	-9.767791e+01	-3.768519e+01	-5.999272e+01	-2.230753e+01	-2.486573e+03	2.464266e+03	-2.475419e+03	1.115377e+01	-4.883895e+01	-1.586590e-18	-4.883895e+01	4.883895e+01
40.38         	-1.500255e+01	9.084615e+00	-2.408717e+01	-3.317178e+01	2.702363e+02	-3.034081e+02	2.868222e+02	1.658589e+01	-7.501276e+00	-4.567412e-18	-7.501276e+00	7.501276e+00
40.385        	1.303195e+01	-2.923853e+00	1.595581e+01	1.887966e+01	6.084953e+01	-4.196987e+01	5.140970e+01	-9.439829e+00	6.515977e+00	9.387065e-18	6.515977e+00	-6.515977e+00
40.39         	6.538498e+01	1.127219e+01	5.411279e+01	4.284059e+01	1.168583e+03	-1.125743e+03	1.147163e+03	-2.142030e+01	3.269249e+01	1.576610e-17	3.269249e+01	-3.269249e+01
40.395        	6.901015e+01	1.718380e+00	6.729177e+01	6.557339e+01	8.109684e+02	-7.453950e+02	7.781817e+02	-3.278669e+01	3.450507e+01	2.186472e-17	3.450507e+01	-3.450507e+01
40.4          	1.353943e+02	2.159085e+01	1.138034e+02	9.221258e+01	2.286177e+03	-2.193964e+03	2.240070e+03	-4.610629e+01	6.769714e+01	2.847947e-17	6.769714e+01	-6.769714e+01
40.405        	1.586252e+02	2.727748e+01	1.313477e+02	1.040702e+02	2.747655e+03	-2.643585e+03	2.695620e+03	-5.203512e+01	7.931260e+01	3.147938e-17	7.931260e+01	-7.931260e+01
40.41         	1.463009e+02	-2.558730e+01	1.718882e+02	1.974755e+02	4.562479e+02	-2.587724e+02	3.575102e+02	-9.873775e+01	7.315045e+01	5.657218e-17	7.315045e+01	-7.315045e+01
40.415        	1.906283e+02	-2.501451e+01	2.156428e+02	2.406573e+02	9.148121e+02	-6.741548e+02	7.944834e+02	-1.203286e+02	9.531413e+01	6.773410e-17	9.531413e+01	-9.531413e+01
40.42         	1.484211e+02	-1.986300e+00	1.504074e+02	1.523937e+02	1.428328e+03	-1.275934e+03	1.352131e+03	-7.619684e+01	7.421054e+01	4.405256e-17	7.421054e+01	-7.421054e+01
40.425        	9.996718e+01	-9.628845e+00	1.095960e+02	1.192249e+02	6.306291e+02	-5.114043e+02	5.710167e+02	-5.961243e+01	4.998359e+01	3.525903e-17	4.998359e+01	-4.998359e+01
40.43         	1.067487e+02	-6.382230e+00	1.131309e+02	1.195132e+02	8.358183e+02	-7.163051e+02	7.760617e+02	-5.975659e+01	5.337436e+01	3.525677e-17	5.337436e+01	-5.337436e+01
40.435        	3.124280e+01	-3.931143e+01	7.055422e+01	1.098656e+02	-1.276820e+03	1.386686e+03	-1.331753e+03	-5.493282e+01	1.562140e+01	3.283914e-17	1.562140e+01	-1.562140e+01
40.44         	-7.184386e+01	-8.449405e+01	1.265019e+01	9.714424e+01	-4.166121e+03	4.263266e+03	-4.214693e+03	-4.857212e+01	-3.592193e+01	2.968448e-17	-3.592193e+01	3.592193e+01
40.445        	-1.261870e+02	-8.492560e+01	-4.126141e+01	4.366419e+01	-4.725513e+03	4.769177e+03	-4.747345e+03	-2.183210e+01	-6.309350e+01	1.556120e-17	-6.309350e+01	6.309350e+01
40.45         	-3.841024e+01	-1.982434e+01	-1.858591e+01	1.238431e+00	-1.168627e+03	1.169865e+03	-1.169246e+03	-6.192154e-01	-1.920512e+01	4.093016e-18	-1.920512e+01	1.920512e+01
40.455        	-7.629230e+00	2.297083e+01	-3.060006e+01	-5.357089e+01	8.949398e+02	-9.485107e+02	9.217252e+02	2.678544e+01	-3.814615e+00	-1.063192e-17	-3.814615e+00	3.814615e+00
40.46         	-5.352346e+00	5.395297e+01	-5.930531e+01	-1.132583e+02	2.184243e+03	-2.297501e+03	2.240872e+03	5.662914e+01	-2.676173e+00	-2.671042e-17	-2.676173e+00	2.676173e+00
40.465        	-3.845262e+01	5.328107e+01	-9.173369e+01	-1.450148e+02	1.830080e+03	-1.975095e+03	1.902588e+03	7.250738e+01	-1.922631e+01	-3.500483e-17	-1.922631e+01	1.922631e+01
40.47         	-5.034884e+01	6.863321e+01	-1.189821e+02	-1.876153e+02	2.343356e+03	-2.530971e+03	2.437164e+03	9.380763e+01	-2.517442e+01	-4.658848e-17	-2.517442e+01	2.517442e+01
40.475        	-1.234851e+02	5.862889e+01	-1.821140e+02	-2.407429e+02	1.207591e+03	-1.448334e+03	1.327963e+03	1.203714e+02	-6.174254e+01	-6.044373e-17	-6.174254e+01	6.174254e+01
40.48         	-1.829816e+02	5.149881e+01	-2.344804e+02	-2.859792e+02	3.081900e+02	-5.941693e+02	4.511797e+02	1.429896e+02	-9.149081e+01	-7.302949e-17	-9.149081e+01	9.149081e+01
40.485        	-2.495093e+02	5.140350e+01	-3.009128e+02	-3.523163e+02	-3.642558e+02	1.193948e+01	-1.880976e+02	1.761582e+02	-1.247547e+02	-9.072866e-17	-1.247547e+02	1.247547e+02
40.49         	-3.225251e+02	-2.883679e-01	-3.222367e+02	-3.219483e+02	-3.211068e+03	2.889119e+03	-3.050093e+03	1.609742e+02	-1.612625e+02	-8.245599e-17	-1.612625e+02	1.612625e+02
40.495        	-2.889531e+02	3.155249e+01	-3.205056e+02	-3.520581e+02	-1.553007e+03	1.200949e+03	-1.376978e+03	1.760291e+02	-1.444766e+02	-9.054193e-17	-1.444766e+02	1.444766e+02
40.5          	-2.052320e+02	1.547463e+01	-2.207066e+02	-2.361812e+02	-1.356347e+03	1.120166e+03	-1.238256e+03	1.180906e+02	-1.026160e+02	-5.940117e-17	-1.026160e+02	1.026160e+02
40.505        	-1.630850e+02	2.758643e+01	-1.906715e+02	-2.182579e+02	-4.340360e+02	2.157781e+02	-3.249071e+02	1.091289e+02	-8.154252e+01	-5.461589e-17	-8.154252e+01	8.154252e+01
40.51         	-1.708271e+02	-1.536456e+01	-1.554625e+02	-1.400980e+02	-2.271177e+03	2.131079e+03	-2.201128e+03	7.004899e+01	-8.541355e+01	-3.311998e-17	-8.541355e+01	8.541355e+01
40.515        	-1.606016e+02	-2.148385e+01	-1.391178e+02	-1.176339e+02	-2.429721e+03	2.312087e+03	-2.370904e+03	5.881696e+01	-8.030081e+01	-2.722535e-17	-8.030081e+01	8.030081e+01
40.52         	-1.797437e+02	-2.532130e+01	-1.544224e+02	-1.291011e+02	-2.788394e+03	2.659293e+03	-2.723843e+03	6.455056e+01	-8.987186e+01	-3.023364e-17	-8.987186e+01	8.987186e+01
40.525        	-1.416700e+02	-1.976710e+01	-1.219029e+02	-1.021358e+02	-2.183615e+03	2.081479e+03	-2.132547e+03	5.106789e+01	-7.083499e+01	-2.325349e-17	-7.083499e+01	7.083499e+01
40.53         	-1.019642e+02	1.907785e+00	-1.038720e+02	-1.057797e+02	-9.162507e+02	8.104709e+02	-8.633608e+02	5.288987e+01	-5.098209e+01	-2.482264e-17	-5.098209e+01	5.098209e+01
40.535        	-1.442289e+02	-1.109245e+01	-1.331365e+02	-1.220440e+02	-1.865813e+03	1.743769e+03	-1.804791e+03	6.102200e+01	-7.211445e+01	-2.888934e-17	-7.211445e+01	7.211445e+01
40.54         	-1.712998e+02	-6.522489e+00	-1.647774e+02	-1.582549e+02	-1.939749e+03	1.781494e+03	-1.860621e+03	7.912743e+01	-8.564992e+01	-3.848663e-17	-8.564992e+01	8.564992e+01
40.545        	-1.981159e+02	1.010913e+01	-2.082250e+02	-2.183341e+02	-1.529201e+03	1.310867e+03	-1.420034e+03	1.091671e+02	-9.905793e+01	-5.478006e-17	-9.905793e+01	9.905793e+01
40.55         	-1.703852e+02	2.612636e+01	-1.965116e+02	-2.226379e+02	-5.945658e+02	3.719279e+02	-4.832469e+02	1.113190e+02	-8.519260e+01	-5.621218e-17	-8.519260e+01	8.519260e+01
40.555        	-1.422972e+02	4.548080e+01	-1.877780e+02	-2.332588e+02	4.821353e+02	-7.153941e+02	5.987647e+02	1.166294e+02	-7.114860e+01	-5.913792e-17	-7.114860e+01	7.114860e+01
40.56         	-1.614912e+02	4.925565e+01	-2.107468e+02	-2.600025e+02	4.462057e+02	-7.062082e+02	5.762070e+02	1.300012e+02	-8.074558e+01	-6.630260e-17	-8.074558e+01	8.074558e+01
40.565        	-2.033307e+02	2.242528e+01	-2.257560e+02	-2.481813e+02	-1.061953e+03	8.137717e+02	-9.378623e+02	1.240906e+02	-1.016654e+02	-6.277254e-17	-1.016654e+02	1.016654e+02
40.57         	-2.654765e+02	-1.222596e+01	-2.532505e+02	-2.410246e+02	-3.124730e+03	2.883706e+03	-3.004218e+03	1.205123e+02	-1.327382e+02	-6.105024e-17	-1.327382e+02	1.327382e+02
40.575        	-3.027614e+02	-3.308720e+01	-2.696742e+02	-2.365870e+02	-4.361842e+03	4.125255e+03	-4.243548e+03	1.182935e+02	-1.513807e+02	-5.990532e-17	-1.513807e+02	1.513807e+02
40.58         	-2.826093e+02	-3.799094e+01	-2.446184e+02	-2.066274e+02	-4.355156e+03	4.148528e+03	-4.251842e+03	1.033137e+02	-1.413047e+02	-5.186376e-17	-1.413047e+02	1.413047e+02
40.585        	-2.972679e+02	-4.346214e+01	-2.538058e+02	-2.103437e+02	-4.722509e+03	4.512166e+03	-4.617337e+03	1.051718e+02	-1.486340e+02	-5.260982e-17	-1.486340e+02	1.486340e+02
40.59         	-3.151756e+02	-6.389351e+01	-2.512821e+02	-1.873886e+02	-5.738749e+03	5.551360e+03	-5.645055e+03	9.369431e+01	-1.575878e+02	-4.628828e-17	-1.575878e+02	1.575878e+02
40.595        	-3.529951e+02	-6.440087e+01	-2.885942e+02	-2.241934e+02	-6.142988e+03	5.918795e+03	-6.030892e+03	1.120967e+02	-1.764976e+02	-5.634935e-17	-1.764976e+02	1.764976e+02
40.6          	-3.186524e+02	-4.809205e+01	-2.705603e+02	-2.224683e+02	-5.128486e+03	4.906018e+03	-5.017252e+03	1.112341e+02	-1.593262e+02	-5.610338e-17	-1.593262e+02	1.593262e+02
40.605        	-2.967640e+02	-4.347673e+01	-2.532873e+02	-2.098105e+02	-4.715895e+03	4.506084e+03	-4.610990e+03	1.049053e+02	-1.483820e+02	-5.271548e-17	-1.483820e+02	1.483820e+02
40.61         	-2.974401e+02	-3.446243e+01	-2.629776e+02	-2.285152e+02	-4.348906e+03	4.120391e+03	-4.234648e+03	1.142576e+02	-1.487200e+02	-5.773022e-17	-1.487200e+02	1.487200e+02
40.615        	-3.436632e+02	-3.330932e+01	-3.103539e+02	-2.770446e+02	-4.772884e+03	4.495840e+03	-4.634362e+03	1.385223e+02	-1.718316e+02	-7.072064e-17	-1.718316e+02	1.718316e+02
40.62         	-4.794957e+02	-9.384594e+01	-3.856497e+02	-2.918038e+02	-8.619547e+03	8.327743e+03	-8.473645e+03	1.459019e+02	-2.397478e+02	-7.422014e-17	-2.397478e+02	2.397478e+02
40.625        	-5.440267e+02	-1.143016e+02	-4.297251e+02	-3.154235e+02	-1.010398e+04	9.788554e+03	-9.946266e+03	1.577117e+02	-2.720133e+02	-8.063126e-17	-2.720133e+02	2.720133e+02
40.63         	-5.164170e+02	-1.478060e+02	-3.686110e+02	-2.208050e+02	-1.118835e+04	1.096755e+04	-1.107795e+04	1.104025e+02	-2.582085e+02	-5.508721e-17	-2.582085e+02	2.582085e+02
40.635        	-4.969566e+02	-1.527373e+02	-3.442193e+02	-1.914820e+02	-1.120281e+04	1.101133e+04	-1.110707e+04	9.574101e+01	-2.484783e+02	-4.729182e-17	-2.484783e+02	2.484783e+02
40.64         	-4.906130e+02	-1.463787e+02	-3.442343e+02	-1.978556e+02	-1.088668e+04	1.068882e+04	-1.078775e+04	9.892781e+01	-2.453065e+02	-4.924374e-17	-2.453065e+02	2.453065e+02
40.645        	-4.188583e+02	-1.017969e+02	-3.170614e+02	-2.152644e+02	-8.347207e+03	8.131942e+03	-8.239574e+03	1.076322e+02	-2.094292e+02	-5.434634e-17	-2.094292e+02	2.094292e+02
40.65         	-3.982912e+02	-8.801883e+01	-3.102723e+02	-2.222535e+02	-7.575612e+03	7.353359e+03	-7.464486e+03	1.111268e+02	-1.991456e+02	-5.621852e-17	-1.991456e+02	1.991456e+02
40.655        	-3.917807e+02	-6.289001e+01	-3.288907e+02	-2.660007e+02	-6.481722e+03	6.215722e+03	-6.348722e+03	1.330003e+02	-1.958903e+02	-6.806066e-17	-1.958903e+02	1.958903e+02
40.66         	-4.076393e+02	-7.243785e+01	-3.352015e+02	-2.627636e+02	-7.028071e+03	6.765307e+03	-6.896689e+03	1.313818e+02	-2.038197e+02	-6.699431e-17	-2.038197e+02	2.038197e+02
40.665        	-3.926521e+02	-6.784600e+01	-3.248061e+02	-2.569601e+02	-6.677191e+03	6.420231e+03	-6.548711e+03	1.284801e+02	-1.963261e+02	-6.528446e-17	-1.963261e+02	1.963261e+02
40.67         	-4.245138e+02	-8.578550e+01	-3.387283e+02	-2.529428e+02	-7.727738e+03	7.474796e+03	-7.601267e+03	1.264714e+02	-2.122569e+02	-6.384437e-17	-2.122569e+02	2.122569e+02
40.675        	-4.515162e+02	-8.668761e+01	-3.648286e+02	-2.781410e+02	-8.040705e+03	7.762564e+03	-7.901635e+03	1.390705e+02	-2.257581e+02	-7.064260e-17	-2.257581e+02	2.257581e+02
40.68         	-4.361739e+02	-8.622739e+01	-3.499465e+02	-2.637191e+02	-7.870808e+03	7.607089e+03	-7.738948e+03	1.318595e+02	-2.180869e+02	-6.707831e-17	-2.180869e+02	2.180869e+02
40.685        	-4.379073e+02	-7.976327e+01	-3.581441e+02	-2.783808e+02	-7.642425e+03	7.364044e+03	-7.503234e+03	1.391904e+02	-2.189537e+02	-7.128639e-17	-2.189537e+02	2.189537e+02
40.69         	-4.382915e+02	-7.144333e+01	-3.668481e+02	-2.954048e+02	-7.312228e+03	7.016823e+03	-7.164525e+03	1.477024e+02	-2.191457e+02	-7.570267e-17	-2.191457e+02	2.191457e+02
40.695        	-3.404460e+02	-5.803807e+01	-2.824079e+02	-2.243698e+02	-5.745224e+03	5.520854e+03	-5.633039e+03	1.121849e+02	-1.702230e+02	-5.603229e-17	-1.702230e+02	1.702230e+02
40.7          	-2.420399e+02	-2.026247e+01	-2.217775e+02	-2.015150e+02	-3.219283e+03	3.017768e+03	-3.118526e+03	1.007575e+02	-1.210200e+02	-5.020409e-17	-1.210200e+02	1.210200e+02
40.705        	-2.036464e+02	-2.336475e+01	-1.802817e+02	-1.569169e+02	-2.959789e+03	2.802872e+03	-2.881330e+03	7.845845e+01	-1.018232e+02	-3.805950e-17	-1.018232e+02	1.018232e+02
40.71         	-1.207577e+02	-9.204352e+00	-1.115533e+02	-1.023490e+02	-1.536405e+03	1.434056e+03	-1.485231e+03	5.117449e+01	-6.037884e+01	-2.329890e-17	-6.037884e+01	6.037884e+01
40.715        	-1.140322e+02	-3.725169e+01	-7.678047e+01	-3.952878e+01	-2.619784e+03	2.580255e+03	-2.600020e+03	1.976439e+01	-5.701608e+01	-6.226890e-18	-5.701608e+01	5.701608e+01
40.72         	-4.676433e+01	2.349264e+00	-4.911359e+01	-5.146286e+01	-3.334811e+02	2.820182e+02	-3.077496e+02	2.573143e+01	-2.338216e+01	-9.908342e-18	-2.338216e+01	2.338216e+01
40.725        	-2.695166e+01	5.909243e+00	-3.286090e+01	-3.877014e+01	1.513117e+01	-5.390131e+01	3.451624e+01	1.938507e+01	-1.347583e+01	-6.412953e-18	-1.347583e+01	1.347583e+01
40.73         	-2.512161e+01	2.519399e+01	-5.031559e+01	-7.550958e+01	8.213295e+02	-8.968390e+02	8.590842e+02	3.775479e+01	-1.256080e+01	-1.624776e-17	-1.256080e+01	1.256080e+01
40.735        	-6.356809e-01	6.667016e+01	-6.730584e+01	-1.339760e+02	2.762927e+03	-2.896903e+03	2.829915e+03	6.698800e+01	-3.178404e-01	-3.205472e-17	-3.178404e-01	3.178404e-01
40.74         	1.688363e+01	1.154034e+02	-9.851976e+01	-2.139232e+02	4.928012e+03	-5.141935e+03	5.034973e+03	1.069616e+02	8.441816e+00	-5.388396e-17	8.441816e+00	-8.441816e+00
40.745        	3.122410e+01	1.274812e+02	-9.625709e+01	-2.237383e+02	5.567348e+03	-5.791086e+03	5.679217e+03	1.118691e+02	1.561205e+01	-5.654774e-17	1.561205e+01	-1.561205e+01
40.75         	1.717619e+01	8.308908e+01	-6.591289e+01	-1.490020e+02	3.601517e+03	-3.750519e+03	3.676018e+03	7.450099e+01	8.588093e+00	-3.650901e-17	8.588093e+00	-8.588093e+00
40.755        	4.635584e+01	9.283717e+01	-4.648132e+01	-1.393185e+02	4.290159e+03	-4.429478e+03	4.359818e+03	6.965925e+01	2.317792e+01	-3.397968e-17	2.317792e+01	-2.317792e+01
40.76         	4.555166e+01	1.067622e+02	-6.121053e+01	-1.679727e+02	4.848381e+03	-5.016354e+03	4.932367e+03	8.398636e+01	2.277583e+01	-4.175913e-17	2.277583e+01	-2.277583e+01
40.765        	1.709400e+01	9.729315e+01	-8.019914e+01	-1.774923e+02	4.182240e+03	-4.359732e+03	4.270986e+03	8.874615e+01	8.547002e+00	-4.413816e-17	8.547002e+00	-8.547002e+00
40.77         	2.059446e+00	9.644600e+01	-9.438655e+01	-1.908326e+02	4.001917e+03	-4.192750e+03	4.097333e+03	9.541628e+01	1.029723e+00	-4.760018e-17	1.029723e+00	-1.029723e+00
40.775        	-1.904766e+01	8.441648e+01	-1.034641e+02	-1.878806e+02	3.291454e+03	-3.479335e+03	3.385395e+03	9.394031e+01	-9.523829e+00	-4.696956e-17	-9.523829e+00	9.523829e+00
40.78         	-5.467218e+01	7.675933e+01	-1.314315e+02	-2.081908e+02	2.619411e+03	-2.827601e+03	2.723506e+03	1.040954e+02	-2.733609e+01	-5.230361e-17	-2.733609e+01	2.733609e+01
40.785        	-1.180433e+02	6.912436e+01	-1.871676e+02	-2.562920e+02	1.662861e+03	-1.919153e+03	1.791007e+03	1.281460e+02	-5.902164e+01	-6.523347e-17	-5.902164e+01	5.902164e+01
40.79         	-1.819387e+02	6.291912e+01	-2.448578e+02	-3.077770e+02	7.518895e+02	-1.059666e+03	9.057780e+02	1.538885e+02	-9.096936e+01	-7.927824e-17	-9.096936e+01	9.096936e+01
40.795        	-2.207608e+02	6.636799e+01	-2.871288e+02	-3.534968e+02	4.883548e+02	-8.418516e+02	6.651032e+02	1.767484e+02	-1.103804e+02	-9.188979e-17	-1.103804e+02	1.103804e+02
40.8          	-2.143502e+02	4.565470e+01	-2.600049e+02	-3.056596e+02	-2.840009e+02	-2.165873e+01	-1.311711e+02	1.528298e+02	-1.071751e+02	-7.903524e-17	-1.071751e+02	1.071751e+02
40.805        	-1.465603e+02	5.223691e+01	-1.987972e+02	-2.510341e+02	6.858876e+02	-9.369217e+02	8.114046e+02	1.255171e+02	-7.328015e+01	-6.409981e-17	-7.328015e+01	7.328015e+01
40.81         	-1.033128e+02	3.744838e+01	-1.407611e+02	-1.782095e+02	5.199457e+02	-6.981552e+02	6.090505e+02	8.910476e+01	-5.165638e+01	-4.425199e-17	-5.165638e+01	5.165638e+01
40.815        	-1.267454e+02	-3.239557e+01	-9.434988e+01	-6.195430e+01	-2.575413e+03	2.513458e+03	-2.544436e+03	3.097715e+01	-6.337272e+01	-1.291619e-17	-6.337272e+01	6.337272e+01
40.82         	-6.662537e+01	3.228107e+01	-9.890644e+01	-1.311875e+02	6.689215e+02	-8.001090e+02	7.345152e+02	6.559376e+01	-3.331269e+01	-3.171174e-17	-3.331269e+01	3.331269e+01