# Force and moment coefficients
# dragDir     : (1.000000e+00 0.000000e+00 0.000000e+00)
# sideDir     : (0.000000e+00 0.000000e+00 -1.000000e+00)
# liftDir     : (0.000000e+00 1.000000e+00 0.000000e+00)
# rollAxis    : (1.000000e+00 0.000000e+00 0.000000e+00)
# pitchAxis   : (0.000000e+00 0.000000e+00 -1.000000e+00)
# yawAxis     : (0.000000e+00 1.000000e+00 0.000000e+00)
# magUInf     : 1.000000e+00
# lRef        : 1.000000e+00
# Aref        : 2.000000e+00
# CofR        : (0.000000e+00 0.000000e+00 0.000000e+00)
#
# Time        	Cd            	Cd(f)         	Cd(r)         	Cl            	Cl(f)         	Cl(r)         	CmPitch       	CmRoll        	CmYaw         	Cs            	Cs(f)         	Cs(r)         
0.005         	4.556938e-03	-3.268836e+01	3.269292e+01	6.538127e+01	-1.312544e+03	1.377925e+03	-1.345235e+03	-3.269064e+01	2.278469e-03	2.046366e-17	2.278469e-03	-2.278469e-03
0.01          	4.248995e-03	-3.268857e+01	3.269282e+01	6.538140e+01	-1.312556e+03	1.377937e+03	-1.345247e+03	-3.269070e+01	2.124498e-03	2.046372e-17	2.124498e-03	-2.124498e-03
0.015         	4.156318e-03	-3.268866e+01	3.269282e+01	6.538148e+01	-1.312560e+03	1.377942e+03	-1.345251e+03	-3.269074e+01	2.078159e-03	2.046375e-17	2.078159e-03	-2.078159e-03
0.02          	4.065210e-03	-3.268901e+01	3.269307e+01	6.538208e+01	-1.312575e+03	1.377957e+03	-1.345266e+03	-3.269104e+01	2.032605e-03	2.046393e-17	2.032605e-03	-2.032605e-03
0.025         	4.031054e-03	-3.268901e+01	3.269304e+01	6.538206e+01	-1.312576e+03	1.377958e+03	-1.345267e+03	-3.269103e+01	2.015527e-03	2.046393e-17	2.015527e-03	-2.015527e-03
0.03          	4.035949e-03	-3.268914e+01	3.269317e+01	6.538231e+01	-1.312581e+03	1.377963e+03	-1.345272e+03	-3.269115e+01	2.017974e-03	2.046401e-17	2.017974e-03	-2.017974e-03
0.035         	4.029521e-03	-3.268927e+01	3.269330e+01	6.538257e+01	-1.312586e+03	1.377969e+03	-1.345278e+03	-3.269129e+01	2.014761e-03	2.046409e-17	2.014761e-03	-2.014761e-03
0.04          	4.044252e-03	-3.268937e+01	3.269341e+01	6.538278e+01	-1.312590e+03	1.377973e+03	-1.345281e+03	-3.269139e+01	2.022126e-03	2.046416e-17	2.022126e-03	-2.022126e-03
0.045         	4.072721e-03	-3.268942e+01	3.269349e+01	6.538291e+01	-1.312592e+03	1.377975e+03	-1.345283e+03	-3.269145e+01	2.036360e-03	2.046420e-17	2.036360e-03	-2.036360e-03
0.05          	4.111092e-03	-3.268943e+01	3.269355e+01	6.538298e+01	-1.312592e+03	1.377975e+03	-1.345284e+03	-3.269149e+01	2.055546e-03	2.046423e-17	2.055546e-03	-2.055546e-03
0.055         	4.147345e-03	-3.268969e+01	3.269383e+01	6.538352e+01	-1.312602e+03	1.377985e+03	-1.345294e+03	-3.269176e+01	2.073673e-03	2.046439e-17	2.073673e-03	-2.073673e-03
0.06          	4.200891e-03	-3.268955e+01	3.269375e+01	6.538329e+01	-1.312596e+03	1.377979e+03	-1.345287e+03	-3.269165e+01	2.100445e-03	2.046433e-17	2.100445e-03	-2.100445e-03
0.065         	4.249001e-03	-3.268954e+01	3.269379e+01	6.538332e+01	-1.312595e+03	1.377978e+03	-1.345287e+03	-3.269166e+01	2.124501e-03	2.046434e-17	2.124501e-03	-2.124501e-03
0.07          	4.295817e-03	-3.268953e+01	3.269383e+01	6.538336e+01	-1.312594e+03	1.377978e+03	-1.345286e+03	-3.269168e+01	2.147909e-03	2.046435e-17	2.147909e-03	-2.147909e-03
0.075         	4.342310e-03	-3.268955e+01	3.269389e+01	6.538343e+01	-1.312594e+03	1.377978e+03	-1.345286e+03	-3.269172e+01	2.171155e-03	2.046438e-17	2.171155e-03	-2.171155e-03
0.08          	4.386852e-03	-3.268955e+01	3.269393e+01	6.538348e+01	-1.312594e+03	1.377977e+03	-1.345286e+03	-3.269174e+01	2.193426e-03	2.046439e-17	2.193426e-03	-2.193426e-03
0.085         	4.426503e-03	-3.268956e+01	3.269399e+01	6.538355e+01	-1.312594e+03	1.377978e+03	-1.345286e+03	-3.269178e+01	2.213252e-03	2.046441e-17	2.213252e-03	-2.213252e-03
0.09          	4.466274e-03	-3.268955e+01	3.269402e+01	6.538356e+01	-1.312593e+03	1.377977e+03	-1.345285e+03	-3.269178e+01	2.233137e-03	2.046442e-17	2.233137e-03	-2.233137e-03
0.095         	4.503008e-03	-3.268954e+01	3.269404e+01	6.538358e+01	-1.312593e+03	1.377976e+03	-1.345284e+03	-3.269179e+01	2.251504e-03	2.046443e-17	2.251504e-03	-2.251504e-03
0.1           	4.531273e-03	-3.268956e+01	3.269409e+01	6.538365e+01	-1.312593e+03	1.377977e+03	-1.345285e+03	-3.269182e+01	2.265636e-03	2.046445e-17	2.265636e-03	-2.265636e-03
0.105         	4.559465e-03	-3.268957e+01	3.269413e+01	6.538370e+01	-1.312593e+03	1.377977e+03	-1.345285e+03	-3.269185e+01	2.279732e-03	2.046447e-17	2.279732e-03	-2.279732e-03
0.11          	4.581782e-03	-3.268959e+01	3.269417e+01	6.538377e+01	-1.312594e+03	1.377978e+03	-1.345286e+03	-3.269188e+01	2.290891e-03	2.046449e-17	2.290891e-03	-2.290891e-03
0.115         	4.640813e-03	-3.268958e+01	3.269422e+01	6.538380e+01	-1.312593e+03	1.377977e+03	-1.345285e+03	-3.269190e+01	2.320407e-03	2.046450e-17	2.320407e-03	-2.320407e-03
0.12          	4.660507e-03	-3.268959e+01	3.269425e+01	6.538384e+01	-1.312593e+03	1.377977e+03	-1.345285e+03	-3.269192e+01	2.330254e-03	2.046451e-17	2.330254e-03	-2.330254e-03
0.125         	4.682641e-03	-3.268960e+01	3.269428e+01	6.538388e+01	-1.312593e+03	1.377977e+03	-1.345285e+03	-3.269194e+01	2.341320e-03	2.046452e-17	2.341320e-03	-2.341320e-03
0.13          	4.703603e-03	-3.268960e+01	3.269431e+01	6.538391e+01	-1.312593e+03	1.377977e+03	-1.345285e+03	-3.269195e+01	2.351802e-03	2.046453e-17	2.351802e-03	-2.351802e-03
0.135         	4.723036e-03	-3.268961e+01	3.269433e+01	6.538395e+01	-1.312593e+03	1.377977e+03	-1.345285e+03	-3.269197e+01	2.361518e-03	2.046455e-17	2.361518e-03	-2.361518e-03
0.14          	4.739831e-03	-3.268962e+01	3.269436e+01	6.538398e+01	-1.312594e+03	1.377978e+03	-1.345286e+03	-3.269199e+01	2.369916e-03	2.046456e-17	2.369916e-03	-2.369916e-03
0.145         	4.754992e-03	-3.268962e+01	3.269437e+01	6.538399e+01	-1.312593e+03	1.377977e+03	-1.345285e+03	-3.269199e+01	2.377496e-03	2.046456e-17	2.377496e-03	-2.377496e-03
0.15          	4.766584e-03	-3.268966e+01	3.269442e+01	6.538408e+01	-1.312595e+03	1.377979e+03	-1.345287e+03	-3.269204e+01	2.383292e-03	2.046459e-17	2.383292e-03	-2.383292e-03
0.155         	4.778885e-03	-3.268967e+01	3.269444e+01	6.538411e+01	-1.312595e+03	1.377979e+03	-1.345287e+03	-3.269205e+01	2.389442e-03	2.046460e-17	2.389442e-03	-2.389442e-03
0.16          	4.789003e-03	-3.268966e+01	3.269445e+01	6.538411e+01	-1.312595e+03	1.377979e+03	-1.345287e+03	-3.269206e+01	2.394501e-03	2.046460e-17	2.394501e-03	-2.394501e-03
0.165         	4.796655e-03	-3.268965e+01	3.269444e+01	6.538409e+01	-1.312594e+03	1.377978e+03	-1.345286e+03	-3.269204e+01	2.398328e-03	2.046460e-17	2.398328e-03	-2.398328e-03
0.17          	4.804122e-03	-3.268967e+01	3.269447e+01	6.538414e+01	-1.312595e+03	1.377979e+03	-1.345287e+03	-3.269207e+01	2.402061e-03	2.046461e-17	2.402061e-03	-2.402061e-03
0.175         	4.809845e-03	-3.268971e+01	3.269452e+01	6.538423e+01	-1.312596e+03	1.377981e+03	-1.345289e+03	-3.269211e+01	2.404923e-03	2.046464e-17	2.404923e-03	-2.404923e-03
0.18          	4.816931e-03	-3.268969e+01	3.269451e+01	6.538420e+01	-1.312596e+03	1.377980e+03	-1.345288e+03	-3.269210e+01	2.408466e-03	2.046463e-17	2.408466e-03	-2.408466e-03
0.185         	4.820795e-03	-3.268970e+01	3.269452e+01	6.538422e+01	-1.312596e+03	1.377980e+03	-1.345288e+03	-3.269211e+01	2.410397e-03	2.046464e-17	2.410397e-03	-2.410397e-03
0.19          	4.822791e-03	-3.268970e+01	3.269453e+01	6.538423e+01	-1.312596e+03	1.377980e+03	-1.345288e+03	-3.269212e+01	2.411395e-03	2.046464e-17	2.411395e-03	-2.411395e-03
0.195         	4.822848e-03	-3.268970e+01	3.269452e+01	6.538423e+01	-1.312596e+03	1.377980e+03	-1.345288e+03	-3.269211e+01	2.411424e-03	2.046464e-17	2.411424e-03	-2.411424e-03
0.2           	4.828449e-03	-3.268971e+01	3.269454e+01	6.538426e+01	-1.312597e+03	1.377981e+03	-1.345289e+03	-3.269213e+01	2.414224e-03	2.046465e-17	2.414224e-03	-2.414224e-03
0.205         	4.827572e-03	-3.268974e+01	3.269457e+01	6.538431e+01	-1.312598e+03	1.377982e+03	-1.345290e+03	-3.269216e+01	2.413786e-03	2.046467e-17	2.413786e-03	-2.413786e-03
0.21          	4.827622e-03	-3.268976e+01	3.269459e+01	6.538435e+01	-1.312598e+03	1.377983e+03	-1.345291e+03	-3.269217e+01	2.413811e-03	2.046468e-17	2.413811e-03	-2.413811e-03
0.215         	4.826344e-03	-3.268978e+01	3.269460e+01	6.538438e+01	-1.312599e+03	1.377983e+03	-1.345291e+03	-3.269219e+01	2.413172e-03	2.046469e-17	2.413172e-03	-2.413172e-03
0.22          	4.825353e-03	-3.268978e+01	3.269461e+01	6.538439e+01	-1.312599e+03	1.377984e+03	-1.345291e+03	-3.269219e+01	2.412676e-03	2.046469e-17	2.412676e-03	-2.412676e-03
0.225         	4.825307e-03	-3.268980e+01	3.269463e+01	6.538443e+01	-1.312600e+03	1.377985e+03	-1.345292e+03	-3.269221e+01	2.412654e-03	2.046471e-17	2.412654e-03	-2.412654e-03
0.23          	4.822551e-03	-3.268981e+01	3.269464e+01	6.538445e+01	-1.312601e+03	1.377985e+03	-1.345293e+03	-3.269222e+01	2.411276e-03	2.046471e-17	2.411276e-03	-2.411276e-03
0.235         	4.820462e-03	-3.268985e+01	3.269467e+01	6.538451e+01	-1.312602e+03	1.377986e+03	-1.345294e+03	-3.269226e+01	2.410231e-03	2.046473e-17	2.410231e-03	-2.410231e-03
0.24          	4.814081e-03	-3.268980e+01	3.269462e+01	6.538442e+01	-1.312600e+03	1.377985e+03	-1.345293e+03	-3.269221e+01	2.407040e-03	2.046471e-17	2.407040e-03	-2.407040e-03
0.245         	4.813198e-03	-3.268982e+01	3.269464e+01	6.538446e+01	-1.312601e+03	1.377986e+03	-1.345293e+03	-3.269223e+01	2.406599e-03	2.046472e-17	2.406599e-03	-2.406599e-03
0.25          	4.809771e-03	-3.268985e+01	3.269466e+01	6.538452e+01	-1.312602e+03	1.377987e+03	-1.345295e+03	-3.269226e+01	2.404886e-03	2.046474e-17	2.404886e-03	-2.404886e-03
0.255         	4.805049e-03	-3.268986e+01	3.269467e+01	6.538453e+01	-1.312603e+03	1.377987e+03	-1.345295e+03	-3.269227e+01	2.402525e-03	2.046474e-17	2.402525e-03	-2.402525e-03
0.26          	4.801086e-03	-3.268986e+01	3.269466e+01	6.538452e+01	-1.312603e+03	1.377987e+03	-1.345295e+03	-3.269226e+01	2.400543e-03	2.046474e-17	2.400543e-03	-2.400543e-03
0.265         	4.797080e-03	-3.268988e+01	3.269468e+01	6.538455e+01	-1.312604e+03	1.377988e+03	-1.345296e+03	-3.269228e+01	2.398540e-03	2.046475e-17	2.398540e-03	-2.398540e-03
0.27          	4.789083e-03	-3.268992e+01	3.269470e+01	6.538462e+01	-1.312605e+03	1.377990e+03	-1.345297e+03	-3.269231e+01	2.394542e-03	2.046477e-17	2.394542e-03	-2.394542e-03
0.275         	4.780252e-03	-3.268986e+01	3.269464e+01	6.538450e+01	-1.312603e+03	1.377988e+03	-1.345295e+03	-3.269225e+01	2.390126e-03	2.046473e-17	2.390126e-03	-2.390126e-03
0.28          	4.775290e-03	-3.268989e+01	3.269467e+01	6.538456e+01	-1.312604e+03	1.377989e+03	-1.345296e+03	-3.269228e+01	2.387645e-03	2.046475e-17	2.387645e-03	-2.387645e-03
0.285         	4.769884e-03	-3.268988e+01	3.269465e+01	6.538453e+01	-1.312604e+03	1.377988e+03	-1.345296e+03	-3.269227e+01	2.384942e-03	2.046474e-17	2.384942e-03	-2.384942e-03
0.29          	4.763725e-03	-3.268990e+01	3.269467e+01	6.538457e+01	-1.312605e+03	1.377989e+03	-1.345297e+03	-3.269228e+01	2.381863e-03	2.046475e-17	2.381863e-03	-2.381863e-03
0.295         	4.756515e-03	-3.268992e+01	3.269468e+01	6.538461e+01	-1.312606e+03	1.377990e+03	-1.345298e+03	-3.269230e+01	2.378258e-03	2.046477e-17	2.378258e-03	-2.378258e-03
0.3           	4.750053e-03	-3.268995e+01	3.269470e+01	6.538464e+01	-1.312607e+03	1.377991e+03	-1.345299e+03	-3.269232e+01	2.375026e-03	2.046478e-17	2.375026e-03	-2.375026e-03
0.305         	4.742424e-03	-3.268995e+01	3.269469e+01	6.538465e+01	-1.312607e+03	1.377992e+03	-1.345299e+03	-3.269232e+01	2.371212e-03	2.046478e-17	2.371212e-03	-2.371212e-03
0.31          	4.735523e-03	-3.268997e+01	3.269470e+01	6.538467e+01	-1.312608e+03	1.377992e+03	-1.345300e+03	-3.269234e+01	2.367762e-03	2.046479e-17	2.367762e-03	-2.367762e-03
0.315         	4.728855e-03	-3.268998e+01	3.269471e+01	6.538468e+01	-1.312608e+03	1.377993e+03	-1.345301e+03	-3.269234e+01	2.364428e-03	2.046479e-17	2.364428e-03	-2.364428e-03
0.32          	4.722104e-03	-3.268999e+01	3.269471e+01	6.538470e+01	-1.312609e+03	1.377993e+03	-1.345301e+03	-3.269235e+01	2.361052e-03	2.046480e-17	2.361052e-03	-2.361052e-03
0.325         	4.714860e-03	-3.269000e+01	3.269472e+01	6.538472e+01	-1.312609e+03	1.377994e+03	-1.345302e+03	-3.269236e+01	2.357430e-03	2.046480e-17	2.357430e-03	-2.357430e-03
0.33          	4.707827e-03	-3.269001e+01	3.269472e+01	6.538473e+01	-1.312610e+03	1.377995e+03	-1.345302e+03	-3.269237e+01	2.353914e-03	2.046481e-17	2.353914e-03	-2.353914e-03
0.335         	4.700066e-03	-3.269003e+01	3.269473e+01	6.538477e+01	-1.312611e+03	1.377995e+03	-1.345303e+03	-3.269238e+01	2.350033e-03	2.046482e-17	2.350033e-03	-2.350033e-03
0.34          	4.692078e-03	-3.269006e+01	3.269475e+01	6.538480e+01	-1.312612e+03	1.377997e+03	-1.345304e+03	-3.269240e+01	2.346039e-03	2.046483e-17	2.346039e-03	-2.346039e-03
0.345         	4.686459e-03	-3.269004e+01	3.269473e+01	6.538476e+01	-1.312611e+03	1.377996e+03	-1.345303e+03	-3.269238e+01	2.343229e-03	2.046482e-17	2.343229e-03	-2.343229e-03
0.35          	4.677397e-03	-3.269009e+01	3.269477e+01	6.538485e+01	-1.312613e+03	1.377998e+03	-1.345306e+03	-3.269243e+01	2.338698e-03	2.046484e-17	2.338698e-03	-2.338698e-03
0.355         	4.671500e-03	-3.269011e+01	3.269478e+01	6.538489e+01	-1.312614e+03	1.377999e+03	-1.345306e+03	-3.269244e+01	2.335750e-03	2.046485e-17	2.335750e-03	-2.335750e-03
0.36          	4.658623e-03	-3.269009e+01	3.269475e+01	6.538485e+01	-1.312614e+03	1.377998e+03	-1.345306e+03	-3.269242e+01	2.329312e-03	2.046484e-17	2.329312e-03	-2.329312e-03
0.365         	4.651796e-03	-3.269011e+01	3.269476e+01	6.538487e+01	-1.312614e+03	1.377999e+03	-1.345307e+03	-3.269244e+01	2.325898e-03	2.046485e-17	2.325898e-03	-2.325898e-03
0.37          	4.643195e-03	-3.269014e+01	3.269479e+01	6.538493e+01	-1.312616e+03	1.378001e+03	-1.345308e+03	-3.269246e+01	2.321597e-03	2.046487e-17	2.321597e-03	-2.321597e-03
0.375         	4.635252e-03	-3.269017e+01	3.269480e+01	6.538497e+01	-1.312617e+03	1.378002e+03	-1.345309e+03	-3.269249e+01	2.317626e-03	2.046488e-17	2.317626e-03	-2.317626e-03
0.38          	4.628941e-03	-3.269025e+01	3.269488e+01	6.538513e+01	-1.312620e+03	1.378005e+03	-1.345313e+03	-3.269256e+01	2.314470e-03	2.046493e-17	2.314470e-03	-2.314470e-03
0.385         	4.614062e-03	-3.269015e+01	3.269477e+01	6.538492e+01	-1.312616e+03	1.378001e+03	-1.345309e+03	-3.269246e+01	2.307031e-03	2.046486e-17	2.307031e-03	-2.307031e-03
0.39          	4.605648e-03	-3.269018e+01	3.269478e+01	6.538496e+01	-1.312618e+03	1.378002e+03	-1.345310e+03	-3.269248e+01	2.302824e-03	2.046488e-17	2.302824e-03	-2.302824e-03
0.395         	4.597246e-03	-3.269021e+01	3.269480e+01	6.538501e+01	-1.312619e+03	1.378004e+03	-1.345311e+03	-3.269250e+01	2.298623e-03	2.046489e-17	2.298623e-03	-2.298623e-03
0.4           	4.588343e-03	-3.269023e+01	3.269482e+01	6.538505e+01	-1.312620e+03	1.378005e+03	-1.345312e+03	-3.269252e+01	2.294171e-03	2.046490e-17	2.294171e-03	-2.294171e-03
0.405         	4.579166e-03	-3.269026e+01	3.269484e+01	6.538510e+01	-1.312621e+03	1.378006e+03	-1.345314e+03	-3.269255e+01	2.289583e-03	2.046492e-17	2.289583e-03	-2.289583e-03
0.41          	4.569696e-03	-3.269028e+01	3.269485e+01	6.538513e+01	-1.312622e+03	1.378007e+03	-1.345315e+03	-3.269257e+01	2.284848e-03	2.046493e-17	2.284848e-03	-2.284848e-03
0.415         	4.561942e-03	-3.269030e+01	3.269486e+01	6.538517e+01	-1.312623e+03	1.378008e+03	-1.345315e+03	-3.269258e+01	2.280971e-03	2.046494e-17	2.280971e-03	-2.280971e-03
0.42          	4.554142e-03	-3.269028e+01	3.269484e+01	6.538512e+01	-1.312622e+03	1.378007e+03	-1.345315e+03	-3.269256e+01	2.277071e-03	2.046493e-17	2.277071e-03	-2.277071e-03
0.425         	4.544109e-03	-3.269031e+01	3.269485e+01	6.538515e+01	-1.312623e+03	1.378008e+03	-1.345316e+03	-3.269258e+01	2.272055e-03	2.046494e-17	2.272055e-03	-2.272055e-03
0.43          	4.534033e-03	-3.269032e+01	3.269486e+01	6.538518e+01	-1.312624e+03	1.378009e+03	-1.345317e+03	-3.269259e+01	2.267017e-03	2.046495e-17	2.267017e-03	-2.267017e-03
0.435         	4.523263e-03	-3.269034e+01	3.269487e+01	6.538521e+01	-1.312625e+03	1.378010e+03	-1.345318e+03	-3.269261e+01	2.261631e-03	2.046496e-17	2.261631e-03	-2.261631e-03
0.44          	4.511882e-03	-3.269036e+01	3.269487e+01	6.538523e+01	-1.312626e+03	1.378011e+03	-1.345318e+03	-3.269261e+01	2.255941e-03	2.046496e-17	2.255941e-03	-2.255941e-03
0.445         	4.507783e-03	-3.269038e+01	3.269489e+01	6.538527e+01	-1.312627e+03	1.378012e+03	-1.345319e+03	-3.269264e+01	2.253892e-03	2.046497e-17	2.253892e-03	-2.253892e-03
0.45          	4.499836e-03	-3.269039e+01	3.269489e+01	6.538527e+01	-1.312627e+03	1.378012e+03	-1.345320e+03	-3.269264e+01	2.249918e-03	2.046497e-17	2.249918e-03	-2.249918e-03
0.455         	4.489640e-03	-3.269042e+01	3.269491e+01	6.538534e+01	-1.312628e+03	1.378014e+03	-1.345321e+03	-3.269267e+01	2.244820e-03	2.046499e-17	2.244820e-03	-2.244820e-03
0.46          	4.480172e-03	-3.269043e+01	3.269492e+01	6.538535e+01	-1.312629e+03	1.378014e+03	-1.345322e+03	-3.269268e+01	2.240086e-03	2.046500e-17	2.240086e-03	-2.240086e-03
0.465         	4.470313e-03	-3.269045e+01	3.269492e+01	6.538537e+01	-1.312630e+03	1.378015e+03	-1.345322e+03	-3.269268e+01	2.235157e-03	2.046500e-17	2.235157e-03	-2.235157e-03
0.47          	4.460349e-03	-3.269046e+01	3.269492e+01	6.538538e+01	-1.312630e+03	1.378016e+03	-1.345323e+03	-3.269269e+01	2.230174e-03	2.046501e-17	2.230174e-03	-2.230174e-03
0.475         	4.450203e-03	-3.269047e+01	3.269492e+01	6.538540e+01	-1.312631e+03	1.378016e+03	-1.345324e+03	-3.269270e+01	2.225102e-03	2.046501e-17	2.225102e-03	-2.225102e-03
0.48          	4.439834e-03	-3.269049e+01	3.269493e+01	6.538542e+01	-1.312632e+03	1.378017e+03	-1.345324e+03	-3.269271e+01	2.219917e-03	2.046502e-17	2.219917e-03	-2.219917e-03
0.485         	4.429644e-03	-3.269050e+01	3.269493e+01	6.538544e+01	-1.312632e+03	1.378018e+03	-1.345325e+03	-3.269272e+01	2.214822e-03	2.046503e-17	2.214822e-03	-2.214822e-03
0.49          	4.419072e-03	-3.269054e+01	3.269495e+01	6.538549e+01	-1.312634e+03	1.378019e+03	-1.345326e+03	-3.269274e+01	2.209536e-03	2.046504e-17	2.209536e-03	-2.209536e-03
0.495         	4.410629e-03	-3.269053e+01	3.269494e+01	6.538546e+01	-1.312633e+03	1.378019e+03	-1.345326e+03	-3.269273e+01	2.205314e-03	2.046503e-17	2.205314e-03	-2.205314e-03
0.5           	4.401942e-03	-3.269052e+01	3.269492e+01	6.538544e+01	-1.312633e+03	1.378019e+03	-1.345326e+03	-3.269272e+01	2.200971e-03	2.046502e-17	2.200971e-03	-2.200971e-03
0.505         	4.391591e-03	-3.269054e+01	3.269493e+01	6.538548e+01	-1.312634e+03	1.378020e+03	-1.345327e+03	-3.269274e+01	2.195796e-03	2.046504e-17	2.195796e-03	-2.195796e-03
0.51          	4.381653e-03	-3.269056e+01	3.269494e+01	6.538550e+01	-1.312635e+03	1.378021e+03	-1.345328e+03	-3.269275e+01	2.190826e-03	2.046505e-17	2.190826e-03	-2.190826e-03
0.515         	4.371858e-03	-3.269058e+01	3.269495e+01	6.538553e+01	-1.312636e+03	1.378021e+03	-1.345329e+03	-3.269276e+01	2.185929e-03	2.046505e-17	2.185929e-03	-2.185929e-03
0.52          	4.362246e-03	-3.269059e+01	3.269496e+01	6.538555e+01	-1.312637e+03	1.378022e+03	-1.345329e+03	-3.269277e+01	2.181123e-03	2.046506e-17	2.181123e-03	-2.181123e-03
0.525         	4.352941e-03	-3.269061e+01	3.269496e+01	6.538557e+01	-1.312637e+03	1.378023e+03	-1.345330e+03	-3.269279e+01	2.176471e-03	2.046507e-17	2.176471e-03	-2.176471e-03
0.53          	4.341944e-03	-3.269062e+01	3.269496e+01	6.538559e+01	-1.312638e+03	1.378024e+03	-1.345331e+03	-3.269279e+01	2.170972e-03	2.046507e-17	2.170972e-03	-2.170972e-03
0.535         	4.333001e-03	-3.269064e+01	3.269497e+01	6.538561e+01	-1.312639e+03	1.378024e+03	-1.345331e+03	-3.269280e+01	2.166501e-03	2.046508e-17	2.166501e-03	-2.166501e-03
0.54          	4.323911e-03	-3.269065e+01	3.269497e+01	6.538563e+01	-1.312639e+03	1.378025e+03	-1.345332e+03	-3.269281e+01	2.161956e-03	2.046508e-17	2.161956e-03	-2.161956e-03
0.545         	4.314506e-03	-3.269066e+01	3.269497e+01	6.538562e+01	-1.312640e+03	1.378025e+03	-1.345332e+03	-3.269281e+01	2.157253e-03	2.046508e-17	2.157253e-03	-2.157253e-03
0.55          	4.304340e-03	-3.269068e+01	3.269499e+01	6.538567e+01	-1.312641e+03	1.378026e+03	-1.345334e+03	-3.269283e+01	2.152170e-03	2.046510e-17	2.152170e-03	-2.152170e-03
0.555         	4.295212e-03	-3.269069e+01	3.269499e+01	6.538568e+01	-1.312641e+03	1.378027e+03	-1.345334e+03	-3.269284e+01	2.147606e-03	2.046510e-17	2.147606e-03	-2.147606e-03
0.56          	4.286847e-03	-3.269070e+01	3.269499e+01	6.538570e+01	-1.312642e+03	1.378028e+03	-1.345335e+03	-3.269285e+01	2.143424e-03	2.046510e-17	2.143424e-03	-2.143424e-03
0.565         	4.269774e-03	-3.269073e+01	3.269500e+01	6.538572e+01	-1.312643e+03	1.378029e+03	-1.345336e+03	-3.269286e+01	2.134887e-03	2.046511e-17	2.134887e-03	-2.134887e-03
0.57          	4.262902e-03	-3.269073e+01	3.269499e+01	6.538572e+01	-1.312643e+03	1.378029e+03	-1.345336e+03	-3.269286e+01	2.131451e-03	2.046511e-17	2.131451e-03	-2.131451e-03
0.575         	4.253727e-03	-3.269077e+01	3.269502e+01	6.538579e+01	-1.312645e+03	1.378031e+03	-1.345338e+03	-3.269290e+01	2.126864e-03	2.046513e-17	2.126864e-03	-2.126864e-03
0.58          	4.244810e-03	-3.269078e+01	3.269502e+01	6.538580e+01	-1.312645e+03	1.378031e+03	-1.345338e+03	-3.269290e+01	2.122405e-03	2.046514e-17	2.122405e-03	-2.122405e-03
0.585         	4.235646e-03	-3.269079e+01	3.269503e+01	6.538582e+01	-1.312646e+03	1.378032e+03	-1.345339e+03	-3.269291e+01	2.117823e-03	2.046514e-17	2.117823e-03	-2.117823e-03
0.59          	4.226312e-03	-3.269080e+01	3.269503e+01	6.538583e+01	-1.312646e+03	1.378032e+03	-1.345339e+03	-3.269292e+01	2.113156e-03	2.046515e-17	2.113156e-03	-2.113156e-03
0.595         	4.217102e-03	-3.269082e+01	3.269503e+01	6.538585e+01	-1.312647e+03	1.378033e+03	-1.345340e+03	-3.269292e+01	2.108551e-03	2.046515e-17	2.108551e-03	-2.108551e-03
0.6           	4.207624e-03	-3.269083e+01	3.269504e+01	6.538586e+01	-1.312648e+03	1.378033e+03	-1.345341e+03	-3.269293e+01	2.103812e-03	2.046516e-17	2.103812e-03	-2.103812e-03
0.605         	4.198087e-03	-3.269084e+01	3.269504e+01	6.538588e+01	-1.312648e+03	1.378034e+03	-1.345341e+03	-3.269294e+01	2.099044e-03	2.046516e-17	2.099044e-03	-2.099044e-03
0.61          	4.188561e-03	-3.269085e+01	3.269504e+01	6.538590e+01	-1.312649e+03	1.378035e+03	-1.345342e+03	-3.269295e+01	2.094281e-03	2.046517e-17	2.094281e-03	-2.094281e-03
0.615         	4.179039e-03	-3.269087e+01	3.269505e+01	6.538591e+01	-1.312649e+03	1.378035e+03	-1.345342e+03	-3.269296e+01	2.089520e-03	2.046517e-17	2.089520e-03	-2.089520e-03
0.62          	4.169536e-03	-3.269088e+01	3.269505e+01	6.538593e+01	-1.312650e+03	1.378036e+03	-1.345343e+03	-3.269296e+01	2.084768e-03	2.046517e-17	2.084768e-03	-2.084768e-03
0.625         	4.159996e-03	-3.269089e+01	3.269505e+01	6.538594e+01	-1.312651e+03	1.378037e+03	-1.345344e+03	-3.269297e+01	2.079998e-03	2.046518e-17	2.079998e-03	-2.079998e-03
0.63          	4.150167e-03	-3.269091e+01	3.269506e+01	6.538598e+01	-1.312652e+03	1.378038e+03	-1.345345e+03	-3.269299e+01	2.075084e-03	2.046519e-17	2.075084e-03	-2.075084e-03
0.635         	4.142319e-03	-3.269088e+01	3.269503e+01	6.538591e+01	-1.312650e+03	1.378036e+03	-1.345343e+03	-3.269295e+01	2.071159e-03	2.046517e-17	2.071159e-03	-2.071159e-03
0.64          	4.128689e-03	-3.269090e+01	3.269503e+01	6.538593e+01	-1.312651e+03	1.378037e+03	-1.345344e+03	-3.269297e+01	2.064344e-03	2.046518e-17	2.064344e-03	-2.064344e-03
0.645         	4.122831e-03	-3.269097e+01	3.269509e+01	6.538606e+01	-1.312654e+03	1.378040e+03	-1.345347e+03	-3.269303e+01	2.061415e-03	2.046521e-17	2.061415e-03	-2.061415e-03
0.65          	4.112730e-03	-3.269095e+01	3.269507e+01	6.538602e+01	-1.312654e+03	1.378040e+03	-1.345347e+03	-3.269301e+01	2.056365e-03	2.046520e-17	2.056365e-03	-2.056365e-03
0.655         	4.103209e-03	-3.269096e+01	3.269506e+01	6.538602e+01	-1.312654e+03	1.378040e+03	-1.345347e+03	-3.269301e+01	2.051604e-03	2.046520e-17	2.051604e-03	-2.051604e-03
0.66          	4.094367e-03	-3.269099e+01	3.269509e+01	6.538608e+01	-1.312655e+03	1.378041e+03	-1.345348e+03	-3.269304e+01	2.047183e-03	2.046522e-17	2.047183e-03	-2.047183e-03
0.665         	4.084608e-03	-3.269104e+01	3.269512e+01	6.538616e+01	-1.312657e+03	1.378043e+03	-1.345350e+03	-3.269308e+01	2.042304e-03	2.046525e-17	2.042304e-03	-2.042304e-03
0.67          	4.074700e-03	-3.269104e+01	3.269511e+01	6.538615e+01	-1.312657e+03	1.378043e+03	-1.345350e+03	-3.269307e+01	2.037350e-03	2.046524e-17	2.037350e-03	-2.037350e-03
0.675         	4.065460e-03	-3.269105e+01	3.269512e+01	6.538617e+01	-1.312658e+03	1.378044e+03	-1.345351e+03	-3.269308e+01	2.032730e-03	2.046525e-17	2.032730e-03	-2.032730e-03
0.68          	4.056012e-03	-3.269107e+01	3.269512e+01	6.538619e+01	-1.312659e+03	1.378045e+03	-1.345352e+03	-3.269310e+01	2.028006e-03	2.046525e-17	2.028006e-03	-2.028006e-03
0.685         	4.044763e-03	-3.269108e+01	3.269512e+01	6.538620e+01	-1.312659e+03	1.378045e+03	-1.345352e+03	-3.269310e+01	2.022382e-03	2.046526e-17	2.022382e-03	-2.022382e-03
0.69          	4.030607e-03	-3.269109e+01	3.269512e+01	6.538621e+01	-1.312660e+03	1.378046e+03	-1.345353e+03	-3.269310e+01	2.015303e-03	2.046526e-17	2.015303e-03	-2.015303e-03
0.695         	4.051131e-03	-3.269108e+01	3.269513e+01	6.538621e+01	-1.312659e+03	1.378045e+03	-1.345352e+03	-3.269310e+01	2.025566e-03	2.046526e-17	2.025566e-03	-2.025566e-03
0.7           	4.035007e-03	-3.269110e+01	3.269513e+01	6.538623e+01	-1.312660e+03	1.378046e+03	-1.345353e+03	-3.269311e+01	2.017504e-03	2.046527e-17	2.017504e-03	-2.017504e-03
0.705         	4.023595e-03	-3.269111e+01	3.269513e+01	6.538624e+01	-1.312661e+03	1.378047e+03	-1.345354e+03	-3.269312e+01	2.011798e-03	2.046527e-17	2.011798e-03	-2.011798e-03
0.71          	4.022414e-03	-3.269112e+01	3.269514e+01	6.538626e+01	-1.312661e+03	1.378047e+03	-1.345354e+03	-3.269313e+01	2.011207e-03	2.046528e-17	2.011207e-03	-2.011207e-03
0.715         	4.014141e-03	-3.269113e+01	3.269515e+01	6.538628e+01	-1.312662e+03	1.378048e+03	-1.345355e+03	-3.269314e+01	2.007070e-03	2.046528e-17	2.007070e-03	-2.007070e-03
0.72          	4.003461e-03	-3.269114e+01	3.269514e+01	6.538628e+01	-1.312662e+03	1.378048e+03	-1.345355e+03	-3.269314e+01	2.001730e-03	2.046528e-17	2.001730e-03	-2.001730e-03
0.725         	3.994712e-03	-3.269117e+01	3.269516e+01	6.538633e+01	-1.312663e+03	1.378050e+03	-1.345356e+03	-3.269316e+01	1.997356e-03	2.046530e-17	1.997356e-03	-1.997356e-03
0.73          	3.986327e-03	-3.269117e+01	3.269516e+01	6.538634e+01	-1.312664e+03	1.378050e+03	-1.345357e+03	-3.269317e+01	1.993164e-03	2.046530e-17	1.993164e-03	-1.993164e-03
0.735         	3.978104e-03	-3.269118e+01	3.269516e+01	6.538635e+01	-1.312664e+03	1.378051e+03	-1.345357e+03	-3.269317e+01	1.989052e-03	2.046530e-17	1.989052e-03	-1.989052e-03
0.74          	3.969019e-03	-3.269119e+01	3.269516e+01	6.538636e+01	-1.312665e+03	1.378051e+03	-1.345358e+03	-3.269318e+01	1.984509e-03	2.046530e-17	1.984509e-03	-1.984509e-03
0.745         	3.960741e-03	-3.269120e+01	3.269516e+01	6.538637e+01	-1.312665e+03	1.378052e+03	-1.345358e+03	-3.269318e+01	1.980371e-03	2.046531e-17	1.980371e-03	-1.980371e-03
0.75          	3.952399e-03	-3.269121e+01	3.269517e+01	6.538638e+01	-1.312666e+03	1.378052e+03	-1.345359e+03	-3.269319e+01	1.976200e-03	2.046531e-17	1.976200e-03	-1.976200e-03
0.755         	3.944082e-03	-3.269122e+01	3.269517e+01	6.538639e+01	-1.312666e+03	1.378052e+03	-1.345359e+03	-3.269320e+01	1.972041e-03	2.046532e-17	1.972041e-03	-1.972041e-03
0.76          	3.935726e-03	-3.269123e+01	3.269517e+01	6.538640e+01	-1.312667e+03	1.378053e+03	-1.345360e+03	-3.269320e+01	1.967863e-03	2.046532e-17	1.967863e-03	-1.967863e-03
0.765         	3.927086e-03	-3.269125e+01	3.269518e+01	6.538642e+01	-1.312667e+03	1.378054e+03	-1.345361e+03	-3.269321e+01	1.963543e-03	2.046533e-17	1.963543e-03	-1.963543e-03
0.77          	3.919070e-03	-3.269126e+01	3.269517e+01	6.538643e+01	-1.312668e+03	1.378054e+03	-1.345361e+03	-3.269322e+01	1.959535e-03	2.046533e-17	1.959535e-03	-1.959535e-03
0.775         	3.911040e-03	-3.269126e+01	3.269517e+01	6.538644e+01	-1.312668e+03	1.378054e+03	-1.345361e+03	-3.269322e+01	1.955520e-03	2.046533e-17	1.955520e-03	-1.955520e-03
0.78          	3.903747e-03	-3.269127e+01	3.269517e+01	6.538644e+01	-1.312668e+03	1.378055e+03	-1.345362e+03	-3.269322e+01	1.951873e-03	2.046533e-17	1.951873e-03	-1.951873e-03
0.785         	3.890820e-03	-3.269127e+01	3.269516e+01	6.538644e+01	-1.312669e+03	1.378055e+03	-1.345362e+03	-3.269322e+01	1.945410e-03	2.046533e-17	1.945410e-03	-1.945410e-03
0.79          	3.881365e-03	-3.269126e+01	3.269514e+01	6.538640e+01	-1.312668e+03	1.378055e+03	-1.345361e+03	-3.269320e+01	1.940682e-03	2.046532e-17	1.940682e-03	-1.940682e-03
0.795         	3.880192e-03	-3.269135e+01	3.269523e+01	6.538657e+01	-1.312672e+03	1.378058e+03	-1.345365e+03	-3.269329e+01	1.940096e-03	2.046537e-17	1.940096e-03	-1.940096e-03
0.8           	3.871600e-03	-3.269135e+01	3.269522e+01	6.538657e+01	-1.312672e+03	1.378058e+03	-1.345365e+03	-3.269329e+01	1.935800e-03	2.046537e-17	1.935800e-03	-1.935800e-03
0.805         	3.863505e-03	-3.269136e+01	3.269522e+01	6.538658e+01	-1.312672e+03	1.378059e+03	-1.345366e+03	-3.269329e+01	1.931753e-03	2.046537e-17	1.931753e-03	-1.931753e-03
0.81          	3.855481e-03	-3.269137e+01	3.269522e+01	6.538659e+01	-1.312673e+03	1.378059e+03	-1.345366e+03	-3.269329e+01	1.927740e-03	2.046537e-17	1.927740e-03	-1.927740e-03
0.815         	3.847625e-03	-3.269137e+01	3.269522e+01	6.538660e+01	-1.312673e+03	1.378060e+03	-1.345366e+03	-3.269330e+01	1.923813e-03	2.046538e-17	1.923813e-03	-1.923813e-03
0.82          	3.839260e-03	-3.269139e+01	3.269523e+01	6.538662e+01	-1.312674e+03	1.378060e+03	-1.345367e+03	-3.269331e+01	1.919630e-03	2.046538e-17	1.919630e-03	-1.919630e-03
0.825         	3.832295e-03	-3.269139e+01	3.269522e+01	6.538661e+01	-1.312674e+03	1.378061e+03	-1.345367e+03	-3.269331e+01	1.916147e-03	2.046538e-17	1.916147e-03	-1.916147e-03
0.83          	3.824431e-03	-3.269140e+01	3.269523e+01	6.538663e+01	-1.312674e+03	1.378061e+03	-1.345368e+03	-3.269331e+01	1.912215e-03	2.046539e-17	1.912215e-03	-1.912215e-03