# Force       
# CofR        : (0.000000e+00 0.000000e+00 0.000000e+00)
#
# Time        	total_x total_y total_z	pressure_x pressure_y pressure_z	viscous_x viscous_y viscous_z
40.005         -1.863431e+02 -3.279910e+02 8.313837e-17 -1.861317e+02 -3.275264e+02 8.313675e-17 -2.113836e-01 -4.645478e-01 1.618459e-21
40.01          -2.287164e+02 -3.540209e+02 8.984283e-17 -2.285045e+02 -3.535558e+02 8.984120e-17 -2.118959e-01 -4.650882e-01 1.627313e-21
40.015         -2.401841e+02 -3.732952e+02 9.529929e-17 -2.399718e+02 -3.728297e+02 9.529766e-17 -2.122886e-01 -4.655110e-01 1.629996e-21
40.02          -3.089636e+02 -2.348727e+02 5.759661e-17 -3.087510e+02 -2.344074e+02 5.759497e-17 -2.125420e-01 -4.653045e-01 1.641199e-21
40.025         -2.852709e+02 -2.635747e+02 6.507673e-17 -2.850580e+02 -2.631091e+02 6.507509e-17 -2.128818e-01 -4.655656e-01 1.638253e-21
40.03          -2.524272e+02 -3.241297e+02 8.130143e-17 -2.522138e+02 -3.236638e+02 8.129978e-17 -2.134207e-01 -4.659608e-01 1.647804e-21
40.035         -1.759648e+02 -2.616116e+02 6.509963e-17 -1.757513e+02 -2.611460e+02 6.509797e-17 -2.134898e-01 -4.655283e-01 1.659382e-21
40.04          -1.375431e+02 -1.557816e+02 3.661289e-17 -1.373294e+02 -1.553160e+02 3.661123e-17 -2.137173e-01 -4.656030e-01 1.658220e-21
40.045         -1.105950e+02 -2.168404e+02 5.318366e-17 -1.103808e+02 -2.163740e+02 5.318201e-17 -2.142215e-01 -4.664186e-01 1.650812e-21
40.05          -1.111921e+02 -3.553406e+02 9.035997e-17 -1.109772e+02 -3.548731e+02 9.035832e-17 -2.148961e-01 -4.674620e-01 1.641263e-21
40.055         -1.087787e+02 -3.649300e+02 9.288337e-17 -1.085637e+02 -3.644629e+02 9.288172e-17 -2.150091e-01 -4.670961e-01 1.643204e-21
40.06          -1.796441e+02 -2.650144e+02 6.564286e-17 -1.794289e+02 -2.645477e+02 6.564121e-17 -2.151727e-01 -4.667063e-01 1.651905e-21
40.065         -2.307613e+02 -2.470510e+02 6.081436e-17 -2.305457e+02 -2.465839e+02 6.081270e-17 -2.155839e-01 -4.671415e-01 1.654186e-21
40.07          -2.618829e+02 -2.426988e+02 5.973977e-17 -2.616667e+02 -2.422308e+02 5.973811e-17 -2.161724e-01 -4.679673e-01 1.660036e-21
40.075         -1.955309e+02 -3.361541e+02 8.500152e-17 -1.953143e+02 -3.356852e+02 8.499986e-17 -2.165844e-01 -4.688920e-01 1.653623e-21
40.08          -1.222346e+02 -2.940150e+02 7.399421e-17 -1.220185e+02 -2.935468e+02 7.399257e-17 -2.161657e-01 -4.681921e-01 1.642930e-21
40.085         -8.514957e+01 -2.583827e+02 6.399704e-17 -8.493376e+01 -2.579156e+02 6.399540e-17 -2.158102e-01 -4.671498e-01 1.637850e-21
40.09          -1.020969e+02 -2.606937e+02 6.438748e-17 -1.018806e+02 -2.602258e+02 6.438586e-17 -2.163417e-01 -4.679129e-01 1.624952e-21
40.095         -4.242765e+01 -2.953739e+02 7.372576e-17 -4.221130e+01 -2.949058e+02 7.372416e-17 -2.163559e-01 -4.680766e-01 1.603968e-21
40.1           -1.167350e+02 -1.854784e+02 4.397919e-17 -1.165186e+02 -1.850107e+02 4.397760e-17 -2.163741e-01 -4.677041e-01 1.598028e-21
40.105         -5.393565e+01 -2.762313e+02 6.898444e-17 -5.371901e+01 -2.757632e+02 6.898287e-17 -2.166428e-01 -4.680821e-01 1.570852e-21
40.11          -6.972803e+01 -2.463063e+02 6.076725e-17 -6.951143e+01 -2.458387e+02 6.076568e-17 -2.166024e-01 -4.675572e-01 1.569564e-21
40.115         -9.266889e+01 -2.705481e+02 6.738050e-17 -9.245197e+01 -2.700803e+02 6.737891e-17 -2.169199e-01 -4.677514e-01 1.587537e-21
40.12          -9.454399e+01 -3.012966e+02 7.577705e-17 -9.432682e+01 -3.008289e+02 7.577543e-17 -2.171697e-01 -4.677602e-01 1.614806e-21
40.125         -1.215161e+02 -3.185406e+02 8.041292e-17 -1.212984e+02 -3.180725e+02 8.041127e-17 -2.176310e-01 -4.681248e-01 1.648369e-21
40.13          -1.604609e+02 -3.333363e+02 8.443539e-17 -1.602428e+02 -3.328676e+02 8.443372e-17 -2.180883e-01 -4.686602e-01 1.668353e-21
40.135         -1.765919e+02 -3.186032e+02 8.061600e-17 -1.763734e+02 -3.181342e+02 8.061431e-17 -2.184470e-01 -4.690421e-01 1.690567e-21
40.14          -1.867977e+02 -3.015488e+02 7.593586e-17 -1.865788e+02 -3.010793e+02 7.593415e-17 -2.189227e-01 -4.695494e-01 1.709763e-21
40.145         -2.231796e+02 -2.816625e+02 7.045249e-17 -2.229603e+02 -2.811926e+02 7.045077e-17 -2.192525e-01 -4.698861e-01 1.719602e-21
40.15          -1.921931e+02 -2.232537e+02 5.457767e-17 -1.919738e+02 -2.227838e+02 5.457594e-17 -2.193174e-01 -4.698392e-01 1.721745e-21
40.155         -1.050375e+02 -2.218059e+02 5.422261e-17 -1.048185e+02 -2.213365e+02 5.422092e-17 -2.190201e-01 -4.693855e-01 1.691072e-21
40.16          -9.294531e+01 -2.506496e+02 6.221645e-17 -9.272613e+01 -2.501800e+02 6.221478e-17 -2.191841e-01 -4.695974e-01 1.670412e-21
40.165         -1.488740e+01 -1.886200e+02 4.572220e-17 -1.466794e+01 -1.881503e+02 4.572052e-17 -2.194571e-01 -4.696719e-01 1.677709e-21
40.17          -1.978273e+01 -1.616529e+02 3.846893e-17 -1.956272e+01 -1.611826e+02 3.846725e-17 -2.200134e-01 -4.702538e-01 1.684191e-21
40.175         -9.574577e+00 -1.583543e+02 3.788577e-17 -9.354174e+00 -1.578835e+02 3.788409e-17 -2.204031e-01 -4.708566e-01 1.679028e-21
40.18          -3.121817e+00 -2.036021e+02 5.018010e-17 -2.900872e+00 -2.031302e+02 5.017843e-17 -2.209452e-01 -4.718949e-01 1.666918e-21
40.185         -4.226895e+00 -2.351235e+02 5.886767e-17 -4.005314e+00 -2.346506e+02 5.886600e-17 -2.215805e-01 -4.729062e-01 1.668937e-21
40.19          -3.669044e+00 -2.105901e+02 5.236002e-17 -3.447027e+00 -2.101165e+02 5.235835e-17 -2.220175e-01 -4.735831e-01 1.666372e-21
40.195         -1.167415e+01 -2.000690e+02 4.948167e-17 -1.145148e+01 -1.995942e+02 4.948000e-17 -2.226715e-01 -4.748242e-01 1.671465e-21
40.2           -2.018650e+01 -1.178982e+02 2.743167e-17 -1.996343e+01 -1.174228e+02 2.742997e-17 -2.230742e-01 -4.753911e-01 1.691012e-21
40.205         2.285347e+01 -6.182446e+01 1.236945e-17 2.307666e+01 -6.134886e+01 1.236778e-17 -2.231942e-01 -4.756081e-01 1.675631e-21
40.21          1.090002e+02 -3.378946e+01 4.949658e-18 1.092234e+02 -3.331359e+01 4.948025e-18 -2.232714e-01 -4.758715e-01 1.632837e-21
40.215         1.268137e+02 -6.894911e+01 1.441608e-17 1.270373e+02 -6.847241e+01 1.441450e-17 -2.235871e-01 -4.766967e-01 1.576093e-21
40.22          1.228128e+02 -9.572524e+01 2.155977e-17 1.230366e+02 -9.524789e+01 2.155825e-17 -2.238098e-01 -4.773480e-01 1.524291e-21
40.225         1.337444e+02 -1.900922e+02 4.686833e-17 1.339685e+02 -1.896141e+02 4.686685e-17 -2.240774e-01 -4.780400e-01 1.486898e-21
40.23          4.787021e+01 -2.726006e+02 6.899287e-17 4.809459e+01 -2.721221e+02 6.899135e-17 -2.243834e-01 -4.784096e-01 1.518286e-21
40.235         -1.044862e+02 -3.763901e+02 9.675953e-17 -1.042612e+02 -3.759109e+02 9.675799e-17 -2.249289e-01 -4.791688e-01 1.539205e-21
40.24          -1.934209e+02 -3.234191e+02 8.244938e-17 -1.931957e+02 -3.229399e+02 8.244780e-17 -2.252124e-01 -4.791701e-01 1.583405e-21
40.245         -1.917093e+02 -4.019870e+02 1.032305e-16 -1.914835e+02 -4.015071e+02 1.032288e-16 -2.257317e-01 -4.799234e-01 1.609386e-21
40.25          -2.189128e+02 -3.175040e+02 8.046071e-17 -2.186870e+02 -3.170244e+02 8.045907e-17 -2.258453e-01 -4.796186e-01 1.646189e-21
40.255         -1.484034e+02 -3.212014e+02 8.191634e-17 -1.481776e+02 -3.207219e+02 8.191469e-17 -2.258556e-01 -4.795258e-01 1.648446e-21
40.26          -5.515021e+01 -3.785046e+02 9.737975e-17 -5.492426e+01 -3.780248e+02 9.737813e-17 -2.259458e-01 -4.797874e-01 1.625285e-21
40.265         -9.477473e+01 -3.551403e+02 9.093153e-17 -9.454849e+01 -3.546600e+02 9.092992e-17 -2.262444e-01 -4.802425e-01 1.610098e-21
40.27          -1.167597e+02 -4.496678e+02 1.164161e-16 -1.165329e+02 -4.491864e+02 1.164145e-16 -2.267854e-01 -4.813203e-01 1.591669e-21
40.275         -1.494882e+02 -3.982360e+02 1.028110e-16 -1.492611e+02 -3.977542e+02 1.028095e-16 -2.271423e-01 -4.818116e-01 1.586556e-21
40.28          -2.161442e+02 -3.687405e+02 9.457092e-17 -2.159166e+02 -3.682578e+02 9.456935e-17 -2.275988e-01 -4.827471e-01 1.568562e-21
40.285         -2.433190e+02 -4.268667e+02 1.099303e-16 -2.430908e+02 -4.263827e+02 1.099287e-16 -2.281945e-01 -4.839855e-01 1.552109e-21
40.29          -2.731352e+02 -4.371864e+02 1.124511e-16 -2.729065e+02 -4.367016e+02 1.124496e-16 -2.286429e-01 -4.848584e-01 1.547302e-21
40.295         -2.379572e+02 -2.680945e+02 6.750563e-17 -2.377288e+02 -2.676102e+02 6.750407e-17 -2.284300e-01 -4.843369e-01 1.563938e-21
40.3           -2.212382e+02 -2.916847e+02 7.355560e-17 -2.210093e+02 -2.911994e+02 7.355402e-17 -2.289164e-01 -4.853314e-01 1.579511e-21
40.305         -1.233000e+02 -2.833803e+02 7.163803e-17 -1.230710e+02 -2.828947e+02 7.163642e-17 -2.289834e-01 -4.855990e-01 1.604032e-21
40.31          -4.842007e+01 -2.796732e+02 7.082662e-17 -4.819090e+01 -2.791872e+02 7.082500e-17 -2.291713e-01 -4.860397e-01 1.613117e-21
40.315         -2.944548e+01 -2.899727e+02 7.345089e-17 -2.921572e+01 -2.894858e+02 7.344926e-17 -2.297598e-01 -4.868720e-01 1.632396e-21
40.32          -7.571120e+01 -2.802554e+02 7.043916e-17 -7.548063e+01 -2.797675e+02 7.043750e-17 -2.305742e-01 -4.879262e-01 1.657240e-21
40.325         -1.353279e+02 -2.813106e+02 7.061697e-17 -1.350968e+02 -2.808218e+02 7.061530e-17 -2.311010e-01 -4.887957e-01 1.667978e-21
40.33          -2.149842e+02 -7.849185e+01 1.563586e-17 -2.147528e+02 -7.800288e+01 1.563418e-17 -2.314186e-01 -4.889757e-01 1.681129e-21
40.335         -1.739850e+02 -1.457603e+02 3.372288e-17 -1.737530e+02 -1.452701e+02 3.372120e-17 -2.320695e-01 -4.901561e-01 1.682315e-21
40.34          -1.169043e+02 -2.197669e+02 5.406173e-17 -1.166717e+02 -2.192758e+02 5.406003e-17 -2.325691e-01 -4.911591e-01 1.694058e-21
40.345         -1.264259e+02 -1.245845e+02 2.798016e-17 -1.261930e+02 -1.240928e+02 2.797847e-17 -2.329327e-01 -4.917621e-01 1.694616e-21
40.35          -9.055067e+01 -1.056156e+02 2.284675e-17 -9.031737e+01 -1.051233e+02 2.284506e-17 -2.333008e-01 -4.923088e-01 1.694948e-21
40.355         -8.764083e+01 -7.290015e+01 1.391042e-17 -8.740695e+01 -7.240704e+01 1.390872e-17 -2.338871e-01 -4.931098e-01 1.704405e-21
40.36          -1.287925e+02 -1.347401e+02 3.029470e-17 -1.285578e+02 -1.342457e+02 3.029300e-17 -2.346767e-01 -4.944175e-01 1.702610e-21
40.365         -1.967842e+02 -9.559697e+01 2.001927e-17 -1.965488e+02 -9.510146e+01 2.001756e-17 -2.354550e-01 -4.955091e-01 1.704729e-21
40.37          -1.805422e+02 -1.185896e+02 2.610738e-17 -1.803060e+02 -1.180929e+02 2.610567e-17 -2.362279e-01 -4.967754e-01 1.710749e-21
40.375         -1.196554e+02 -2.732673e+01 1.943573e-18 -1.194191e+02 -2.683005e+01 1.941813e-18 -2.363797e-01 -4.966829e-01 1.759507e-21
40.38          -1.837813e+01 -4.063543e+01 5.595079e-18 -1.814133e+01 -4.013834e+01 5.593269e-18 -2.367924e-01 -4.970932e-01 1.810726e-21
40.385         1.596414e+01 2.312758e+01 -1.149915e-17 1.620117e+01 2.362472e+01 -1.150101e-17 -2.370235e-01 -4.971418e-01 1.851746e-21
40.39          8.009660e+01 5.247973e+01 -1.931347e-17 8.033351e+01 5.297640e+01 -1.931534e-17 -2.369126e-01 -4.966717e-01 1.872462e-21
40.395         8.453743e+01 8.032740e+01 -2.678429e-17 8.477408e+01 8.082323e+01 -2.678617e-17 -2.366493e-01 -4.958341e-01 1.881442e-21
40.4           1.658580e+02 1.129604e+02 -3.488735e-17 1.660942e+02 1.134553e+02 -3.488923e-17 -2.361943e-01 -4.948451e-01 1.876232e-21
40.405         1.943159e+02 1.274860e+02 -3.856224e-17 1.945523e+02 1.279812e+02 -3.856409e-17 -2.364490e-01 -4.951636e-01 1.857584e-21
40.41          1.792186e+02 2.419075e+02 -6.930092e-17 1.794549e+02 2.424019e+02 -6.930276e-17 -2.362645e-01 -4.943972e-01 1.841949e-21
40.415         2.335196e+02 2.948052e+02 -8.297427e-17 2.337563e+02 2.953001e+02 -8.297609e-17 -2.366975e-01 -4.949625e-01 1.818647e-21
40.42          1.818158e+02 1.866823e+02 -5.396438e-17 1.820536e+02 1.871789e+02 -5.396618e-17 -2.377425e-01 -4.966153e-01 1.797556e-21
40.425         1.224598e+02 1.460505e+02 -4.319231e-17 1.226979e+02 1.465474e+02 -4.319410e-17 -2.381346e-01 -4.968959e-01 1.788818e-21
40.43          1.307672e+02 1.464036e+02 -4.318955e-17 1.310051e+02 1.469000e+02 -4.319130e-17 -2.379641e-01 -4.963146e-01 1.748037e-21
40.435         3.827243e+01 1.345854e+02 -4.022794e-17 3.851054e+01 1.350818e+02 -4.022966e-17 -2.381153e-01 -4.963771e-01 1.716947e-21
40.44          -8.800873e+01 1.190017e+02 -3.636348e-17 -8.777039e+01 1.194982e+02 -3.636518e-17 -2.383412e-01 -4.965413e-01 1.697139e-21
40.445         -1.545791e+02 5.348863e+01 -1.906247e-17 -1.543401e+02 5.398650e+01 -1.906417e-17 -2.390192e-01 -4.978663e-01 1.699568e-21
40.45          -4.705255e+01 1.517078e+00 -5.013945e-18 -4.681304e+01 2.015629e+00 -5.015670e-18 -2.395121e-01 -4.985515e-01 1.725196e-21
40.455         -9.345807e+00 -6.562434e+01 1.302410e-17 -9.105680e+00 -6.512496e+01 1.302239e-17 -2.401273e-01 -4.993805e-01 1.716172e-21
40.46          -6.556624e+00 -1.387414e+02 3.272026e-17 -6.315535e+00 -1.382406e+02 3.271856e-17 -2.410895e-01 -5.008360e-01 1.703358e-21
40.465         -4.710447e+01 -1.776431e+02 4.288091e-17 -4.686255e+01 -1.771408e+02 4.287924e-17 -2.419123e-01 -5.022622e-01 1.678726e-21
40.47          -6.167733e+01 -2.298287e+02 5.707089e-17 -6.143511e+01 -2.293256e+02 5.706926e-17 -2.422234e-01 -5.030931e-01 1.628585e-21
40.475         -1.512692e+02 -2.949100e+02 7.404357e-17 -1.510266e+02 -2.944059e+02 7.404197e-17 -2.426527e-01 -5.040552e-01 1.593869e-21
40.48          -2.241525e+02 -3.503246e+02 8.946113e-17 -2.239094e+02 -3.498196e+02 8.945954e-17 -2.430660e-01 -5.049762e-01 1.581829e-21
40.485         -3.056489e+02 -4.315875e+02 1.111426e-16 -3.054052e+02 -4.310812e+02 1.111410e-16 -2.437613e-01 -5.062585e-01 1.610773e-21
40.49          -3.950932e+02 -3.943867e+02 1.010086e-16 -3.948495e+02 -3.938807e+02 1.010069e-16 -2.437201e-01 -5.059717e-01 1.669723e-21
40.495         -3.539676e+02 -4.312712e+02 1.109139e-16 -3.537236e+02 -4.307643e+02 1.109122e-16 -2.440468e-01 -5.068849e-01 1.698177e-21
40.5           -2.514092e+02 -2.893220e+02 7.276643e-17 -2.511660e+02 -2.888167e+02 7.276473e-17 -2.431590e-01 -5.053331e-01 1.700929e-21
40.505         -1.997792e+02 -2.673659e+02 6.690446e-17 -1.995359e+02 -2.668602e+02 6.690276e-17 -2.432840e-01 -5.057047e-01 1.704128e-21
40.51          -2.092632e+02 -1.716200e+02 4.057198e-17 -2.090202e+02 -1.711150e+02 4.057024e-17 -2.430260e-01 -5.050802e-01 1.736790e-21
40.515         -1.967370e+02 -1.441015e+02 3.335105e-17 -1.964938e+02 -1.435960e+02 3.334929e-17 -2.432245e-01 -5.055130e-01 1.755480e-21
40.52          -2.201860e+02 -1.581489e+02 3.703620e-17 -2.199425e+02 -1.576426e+02 3.703441e-17 -2.435926e-01 -5.062407e-01 1.796487e-21
40.525         -1.735457e+02 -1.251163e+02 2.848552e-17 -1.733022e+02 -1.246101e+02 2.848368e-17 -2.435423e-01 -5.062386e-01 1.842829e-21
40.53          -1.249061e+02 -1.295802e+02 3.040773e-17 -1.246622e+02 -1.290730e+02 3.040584e-17 -2.438832e-01 -5.071442e-01 1.891661e-21
40.535         -1.766804e+02 -1.495039e+02 3.538944e-17 -1.764364e+02 -1.489961e+02 3.538754e-17 -2.440429e-01 -5.077899e-01 1.901163e-21
40.54          -2.098423e+02 -1.938622e+02 4.714612e-17 -2.095979e+02 -1.933535e+02 4.714421e-17 -2.444194e-01 -5.087561e-01 1.910428e-21
40.545         -2.426919e+02 -2.674593e+02 6.710558e-17 -2.424472e+02 -2.669497e+02 6.710367e-17 -2.447574e-01 -5.095666e-01 1.904720e-21
40.55          -2.087219e+02 -2.727315e+02 6.885992e-17 -2.084771e+02 -2.722215e+02 6.885804e-17 -2.448035e-01 -5.099936e-01 1.877493e-21
40.555         -1.743141e+02 -2.857420e+02 7.244395e-17 -1.740692e+02 -2.852317e+02 7.244210e-17 -2.448402e-01 -5.103604e-01 1.852385e-21
40.56          -1.978267e+02 -3.185030e+02 8.122069e-17 -1.975817e+02 -3.179922e+02 8.121885e-17 -2.449881e-01 -5.108050e-01 1.835530e-21
40.565         -2.490801e+02 -3.040220e+02 7.689637e-17 -2.488352e+02 -3.035114e+02 7.689456e-17 -2.449030e-01 -5.106279e-01 1.809347e-21
40.57          -3.252087e+02 -2.952551e+02 7.478654e-17 -3.249636e+02 -2.947439e+02 7.478472e-17 -2.451290e-01 -5.112182e-01 1.820169e-21
40.575         -3.708827e+02 -2.898190e+02 7.338402e-17 -3.706372e+02 -2.893070e+02 7.338215e-17 -2.454613e-01 -5.120866e-01 1.871144e-21
40.58          -3.461964e+02 -2.531186e+02 6.353310e-17 -3.459511e+02 -2.526066e+02 6.353117e-17 -2.453439e-01 -5.120462e-01 1.929933e-21
40.585         -3.641532e+02 -2.576710e+02 6.444703e-17 -3.639075e+02 -2.571583e+02 6.444507e-17 -2.457408e-01 -5.126739e-01 1.963832e-21
40.59          -3.860902e+02 -2.295511e+02 5.670314e-17 -3.858443e+02 -2.290385e+02 5.670116e-17 -2.458842e-01 -5.125927e-01 1.983917e-21
40.595         -4.324190e+02 -2.746369e+02 6.902795e-17 -4.321725e+02 -2.741235e+02 6.902596e-17 -2.464945e-01 -5.133638e-01 1.993354e-21
40.6           -3.903491e+02 -2.725236e+02 6.872664e-17 -3.901025e+02 -2.720101e+02 6.872468e-17 -2.466144e-01 -5.135167e-01 1.965608e-21
40.605         -3.635359e+02 -2.570179e+02 6.457646e-17 -3.632894e+02 -2.565049e+02 6.457455e-17 -2.464945e-01 -5.130541e-01 1.910498e-21
40.61          -3.643641e+02 -2.799311e+02 7.071952e-17 -3.641173e+02 -2.794178e+02 7.071764e-17 -2.468348e-01 -5.133299e-01 1.874105e-21
40.615         -4.209875e+02 -3.393796e+02 8.663278e-17 -4.207404e+02 -3.388659e+02 8.663094e-17 -2.470966e-01 -5.137148e-01 1.836882e-21
40.62          -5.873822e+02 -3.574597e+02 9.091967e-17 -5.871347e+02 -3.569451e+02 9.091787e-17 -2.475626e-01 -5.145931e-01 1.808020e-21
40.625         -6.664326e+02 -3.863938e+02 9.877330e-17 -6.661848e+02 -3.858784e+02 9.877152e-17 -2.478443e-01 -5.153230e-01 1.773720e-21
40.63          -6.326108e+02 -2.704861e+02 6.748183e-17 -6.323638e+02 -2.699723e+02 6.748007e-17 -2.470082e-01 -5.138355e-01 1.766373e-21
40.635         -6.087719e+02 -2.345655e+02 5.793248e-17 -6.085251e+02 -2.340520e+02 5.793070e-17 -2.467364e-01 -5.135213e-01 1.777285e-21
40.64          -6.010010e+02 -2.423731e+02 6.032358e-17 -6.007544e+02 -2.418595e+02 6.032182e-17 -2.465668e-01 -5.135990e-01 1.762755e-21
40.645         -5.131014e+02 -2.636989e+02 6.657427e-17 -5.128552e+02 -2.631856e+02 6.657253e-17 -2.462115e-01 -5.133207e-01 1.739550e-21
40.65          -4.879067e+02 -2.722605e+02 6.886768e-17 -4.876608e+02 -2.717475e+02 6.886597e-17 -2.459285e-01 -5.130624e-01 1.714322e-21
40.655         -4.799313e+02 -3.258508e+02 8.337430e-17 -4.796853e+02 -3.253374e+02 8.337260e-17 -2.459982e-01 -5.134340e-01 1.701036e-21
40.66          -4.993582e+02 -3.218854e+02 8.206803e-17 -4.991119e+02 -3.213715e+02 8.206631e-17 -2.462064e-01 -5.138826e-01 1.725622e-21
40.665         -4.809989e+02 -3.147762e+02 7.997347e-17 -4.807522e+02 -3.142615e+02 7.997173e-17 -2.466490e-01 -5.146397e-01 1.735974e-21
40.67          -5.200294e+02 -3.098549e+02 7.820935e-17 -5.197823e+02 -3.093396e+02 7.820761e-17 -2.471557e-01 -5.153804e-01 1.745809e-21
40.675         -5.531074e+02 -3.407227e+02 8.653719e-17 -5.528594e+02 -3.402063e+02 8.653542e-17 -2.479370e-01 -5.164190e-01 1.772553e-21
40.68          -5.343130e+02 -3.230559e+02 8.217093e-17 -5.340646e+02 -3.225389e+02 8.216915e-17 -2.484242e-01 -5.169865e-01 1.788958e-21
40.685         -5.364365e+02 -3.410165e+02 8.732583e-17 -5.361871e+02 -3.404980e+02 8.732402e-17 -2.493393e-01 -5.184946e-01 1.806707e-21
40.69          -5.369071e+02 -3.618709e+02 9.273577e-17 -5.366569e+02 -3.613508e+02 9.273397e-17 -2.501425e-01 -5.200875e-01 1.806368e-21
40.695         -4.170463e+02 -2.748530e+02 6.863956e-17 -4.167959e+02 -2.743325e+02 6.863779e-17 -2.504420e-01 -5.205240e-01 1.762785e-21
40.7           -2.964989e+02 -2.468559e+02 6.150001e-17 -2.962484e+02 -2.463353e+02 6.149830e-17 -2.505245e-01 -5.206351e-01 1.708949e-21
40.705         -2.494668e+02 -1.922232e+02 4.662289e-17 -2.492162e+02 -1.917026e+02 4.662119e-17 -2.506065e-01 -5.206356e-01 1.697728e-21
40.71          -1.479282e+02 -1.253775e+02 2.854115e-17 -1.476778e+02 -1.248574e+02 2.853947e-17 -2.503481e-01 -5.201104e-01 1.680685e-21
40.715         -1.396894e+02 -4.842276e+01 7.627940e-18 -1.394391e+02 -4.790283e+01 7.626268e-18 -2.502877e-01 -5.199272e-01 1.672547e-21
40.72          -5.728630e+01 -6.304200e+01 1.213772e-17 -5.703603e+01 -6.252201e+01 1.213607e-17 -2.502757e-01 -5.199946e-01 1.644608e-21
40.725         -3.301578e+01 -4.749342e+01 7.855867e-18 -3.276530e+01 -4.697301e+01 7.854255e-18 -2.504823e-01 -5.204111e-01 1.611889e-21
40.73          -3.077397e+01 -9.249924e+01 1.990351e-17 -3.052293e+01 -9.197777e+01 1.990192e-17 -2.510381e-01 -5.214745e-01 1.585795e-21
40.735         -7.787091e-01 -1.641206e+02 3.926703e-17 -5.270589e-01 -1.635980e+02 3.926546e-17 -2.516502e-01 -5.226362e-01 1.564779e-21
40.74          2.068245e+01 -2.620559e+02 6.600785e-17 2.093480e+01 -2.615319e+02 6.600630e-17 -2.523554e-01 -5.239664e-01 1.547496e-21
40.745         3.824953e+01 -2.740794e+02 6.927098e-17 3.850227e+01 -2.735548e+02 6.926944e-17 -2.527383e-01 -5.245893e-01 1.534211e-21
40.75          2.104083e+01 -1.825274e+02 4.472353e-17 2.129374e+01 -1.820026e+02 4.472201e-17 -2.529170e-01 -5.248584e-01 1.526051e-21
40.755         5.678591e+01 -1.706652e+02 4.162510e-17 5.703917e+01 -1.701394e+02 4.162359e-17 -2.532653e-01 -5.257275e-01 1.512760e-21
40.76          5.580078e+01 -2.057666e+02 5.115494e-17 5.605458e+01 -2.052396e+02 5.115343e-17 -2.538032e-01 -5.269394e-01 1.504602e-21
40.765         2.094015e+01 -2.174281e+02 5.406925e-17 2.119450e+01 -2.168999e+02 5.406775e-17 -2.543493e-01 -5.281942e-01 1.504030e-21
40.77          2.522821e+00 -2.337699e+02 5.831022e-17 2.777850e+00 -2.332401e+02 5.830872e-17 -2.550286e-01 -5.297375e-01 1.502134e-21
40.775         -2.333338e+01 -2.301538e+02 5.753772e-17 -2.307773e+01 -2.296227e+02 5.753621e-17 -2.556558e-01 -5.310487e-01 1.508678e-21
40.78          -6.697341e+01 -2.550338e+02 6.407192e-17 -6.671733e+01 -2.545019e+02 6.407039e-17 -2.560872e-01 -5.318435e-01 1.527228e-21
40.785         -1.446030e+02 -3.139577e+02 7.991101e-17 -1.443463e+02 -3.134246e+02 7.990948e-17 -2.567287e-01 -5.331416e-01 1.530507e-21
40.79          -2.228749e+02 -3.770268e+02 9.711585e-17 -2.226173e+02 -3.764919e+02 9.711431e-17 -2.576294e-01 -5.348733e-01 1.534892e-21
40.795         -2.704320e+02 -4.330336e+02 1.125650e-16 -2.701736e+02 -4.324975e+02 1.125635e-16 -2.583788e-01 -5.360660e-01 1.540816e-21
40.8           -2.625790e+02 -3.744331e+02 9.681816e-17 -2.623204e+02 -3.738968e+02 9.681661e-17 -2.586277e-01 -5.362357e-01 1.558140e-21
40.805         -1.795364e+02 -3.075168e+02 7.852227e-17 -1.792776e+02 -3.069805e+02 7.852067e-17 -2.587781e-01 -5.362524e-01 1.598405e-21
40.81          -1.265581e+02 -2.183067e+02 5.420869e-17 -1.262992e+02 -2.177703e+02 5.420700e-17 -2.589690e-01 -5.364042e-01 1.692968e-21
40.815         -1.552632e+02 -7.589402e+01 1.582233e-17 -1.550037e+02 -7.535717e+01 1.582054e-17 -2.594784e-01 -5.368581e-01 1.790603e-21
40.82          -8.161608e+01 -1.607047e+02 3.884688e-17 -8.135622e+01 -1.601671e+02 3.884508e-17 -2.598603e-01 -5.376501e-01 1.801744e-21
40.825         -8.983613e+01 -3.197172e+02 8.135215e-17 -8.957542e+01 -3.191779e+02 8.135032e-17 -2.607093e-01 -5.393097e-01 1.827486e-21
40.83          -1.221112e+02 -3.463505e+02 8.838098e-17 -1.218499e+02 -3.458104e+02 8.837914e-17 -2.612919e-01 -5.401655e-01 1.837606e-21
40.835         -2.604901e+02 -3.603126e+02 9.183240e-17 -2.602281e+02 -3.597713e+02 9.183056e-17 -2.620438e-01 -5.413411e-01 1.842362e-21
40.84          -4.129367e+02 -3.381186e+02 8.530417e-17 -4.126735e+02 -3.375757e+02 8.530229e-17 -2.631994e-01 -5.429578e-01 1.880896e-21
40.845         -4.444672e+02 -4.109060e+02 1.050540e-16 -4.442034e+02 -4.103622e+02 1.050522e-16 -2.637587e-01 -5.438634e-01 1.881394e-21
40.85          -5.903150e+02 -4.180861e+02 1.067655e-16 -5.900503e+02 -4.175413e+02 1.067636e-16 -2.646848e-01 -5.448586e-01 1.890203e-21
40.855         -4.940892e+02 -4.171402e+02 1.072803e-16 -4.938243e+02 -4.165954e+02 1.072784e-16 -2.649048e-01 -5.448477e-01 1.912261e-21
40.86          -3.353849e+02 -4.226523e+02 1.093740e-16 -3.351200e+02 -4.221079e+02 1.093720e-16 -2.648395e-01 -5.444721e-01 1.961793e-21
40.865         -2.985407e+02 -5.605330e+02 1.462245e-16 -2.982751e+02 -5.599875e+02 1.462225e-16 -2.655094e-01 -5.454843e-01 2.018529e-21
40.87          -2.246959e+02 -5.430064e+02 1.413935e-16 -2.244301e+02 -5.424607e+02 1.413915e-16 -2.658152e-01 -5.456533e-01 2.053897e-21
40.875         -3.763960e+02 -6.113075e+02 1.589602e-16 -3.761289e+02 -6.107600e+02 1.589582e-16 -2.670883e-01 -5.475054e-01 2.019531e-21
40.88          -5.509651e+02 -5.888090e+02 1.526261e-16 -5.506971e+02 -5.882606e+02 1.526241e-16 -2.679144e-01 -5.483051e-01 1.981716e-21
40.885         -5.526847e+02 -6.474876e+02 1.685245e-16 -5.524164e+02 -6.469391e+02 1.685226e-16 -2.683562e-01 -5.484897e-01 1.995945e-21
40.89          -5.709465e+02 -4.944652e+02 1.271827e-16 -5.706781e+02 -4.939173e+02 1.271807e-16 -2.683890e-01 -5.479040e-01 2.030182e-21
40.895         -5.836034e+02 -5.093813e+02 1.306770e-16 -5.833343e+02 -5.088331e+02 1.306750e-16 -2.690830e-01 -5.482922e-01 2.035378e-21
40.9           -4.618302e+02 -4.502621e+02 1.169995e-16 -4.615614e+02 -4.497149e+02 1.169975e-16 -2.688712e-01 -5.472748e-01 2.014624e-21
40.905         -4.698615e+02 -5.108327e+02 1.329090e-16 -4.695921e+02 -5.102849e+02 1.329070e-16 -2.694207e-01 -5.478268e-01 2.015075e-21
40.91          -4.700725e+02 -6.437256e+02 1.682330e-16 -4.698025e+02 -6.431768e+02 1.682310e-16 -2.700260e-01 -5.487796e-01 2.016802e-21
40.915         -3.974635e+02 -5.695421e+02 1.489972e-16 -3.971935e+02 -5.689933e+02 1.489952e-16 -2.700078e-01 -5.488310e-01 1.997052e-21
40.92          -3.429472e+02 -5.340503e+02 1.395081e-16 -3.426769e+02 -5.335010e+02 1.395061e-16 -2.702674e-01 -5.493028e-01 1.977339e-21
40.925         -4.292439e+02 -4.012384e+02 1.036317e-16 -4.289730e+02 -4.006885e+02 1.036297e-16 -2.709262e-01 -5.498317e-01 1.966049e-21
40.93          -3.857287e+02 -3.511621e+02 9.016004e-17 -3.854574e+02 -3.506122e+02 9.015809e-17 -2.712531e-01 -5.498782e-01 1.949901e-21
40.935         -3.004714e+02 -3.833456e+02 9.866287e-17 -3.001998e+02 -3.827954e+02 9.866093e-17 -2.715787e-01 -5.501801e-01 1.944034e-21
40.94          -2.036913e+02 -3.762052e+02 9.694370e-17 -2.034197e+02 -3.756547e+02 9.694176e-17 -2.716545e-01 -5.504365e-01 1.939191e-21
40.945         -1.632810e+02 -3.698154e+02 9.534474e-17 -1.630092e+02 -3.692645e+02 9.534282e-17 -2.718311e-01 -5.509233e-01 1.926898e-21
40.95          -2.382924e+02 -4.034083e+02 1.043050e-16 -2.380200e+02 -4.028564e+02 1.043030e-16 -2.723854e-01 -5.519021e-01 1.929521e-21
40.955         -4.020451e+02 -3.989914e+02 1.028169e-16 -4.017718e+02 -3.984382e+02 1.028150e-16 -2.732790e-01 -5.532875e-01 1.962193e-21
40.96          -5.114823e+02 -4.172224e+02 1.077343e-16 -5.112080e+02 -4.166678e+02 1.077323e-16 -2.742736e-01 -5.545841e-01 2.028445e-21
40.965         -4.786536e+02 -3.443631e+02 8.782433e-17 -4.783792e+02 -3.438086e+02 8.782227e-17 -2.744116e-01 -5.544532e-01 2.064711e-21
40.97          -2.463322e+02 -3.095347e+02 7.872240e-17 -2.460584e+02 -3.089810e+02 7.872034e-17 -2.738602e-01 -5.537438e-01 2.058013e-21
40.975         -1.047384e+02 -3.418833e+02 8.737299e-17 -1.044642e+02 -3.413293e+02 8.737087e-17 -2.742049e-01 -5.540300e-01 2.111514e-21
40.98          -9.288796e+01 -3.369096e+02 8.552367e-17 -9.261394e+01 -3.363561e+02 8.552154e-17 -2.740233e-01 -5.534998e-01 2.128952e-21
40.985         -8.028296e+01 -2.856703e+02 7.186306e-17 -8.000911e+01 -2.851172e+02 7.186093e-17 -2.738542e-01 -5.531640e-01 2.130440e-21
40.99          -1.946716e+02 -3.002227e+02 7.586972e-17 -1.943974e+02 -2.996689e+02 7.586762e-17 -2.741980e-01 -5.538371e-01 2.099460e-21
40.995         -8.907379e+01 -3.007316e+02 7.753980e-17 -8.879988e+01 -3.001781e+02 7.753774e-17 -2.739097e-01 -5.535363e-01 2.057024e-21
41             -1.404108e+02 -2.973961e+02 7.632331e-17 -1.401367e+02 -2.968420e+02 7.632132e-17 -2.741317e-01 -5.541001e-01 1.992372e-21
41.005         -2.014165e+02 -3.393750e+02 8.733813e-17 -2.011419e+02 -3.388201e+02 8.733619e-17 -2.745673e-01 -5.548750e-01 1.944869e-21
41.01          -9.571450e+01 -1.875536e+02 4.699922e-17 -9.544034e+01 -1.869997e+02 4.699725e-17 -2.741571e-01 -5.538085e-01 1.972392e-21
41.015         1.002258e+02 -1.524290e+01 1.503045e-18 1.004995e+02 -1.469043e+01 1.501011e-18 -2.736591e-01 -5.524647e-01 2.034766e-21
41.02          -9.814804e+00 -8.206521e+01 1.846693e-17 -9.539483e+00 -8.151012e+01 1.846489e-17 -2.753209e-01 -5.550936e-01 2.045429e-21
41.025         -2.755456e+01 -9.972263e+01 2.295711e-17 -2.727874e+01 -9.916652e+01 2.295508e-17 -2.758144e-01 -5.561075e-01 2.033994e-21
41.03          -5.856618e+01 -1.453656e+02 3.515173e-17 -5.828935e+01 -1.448076e+02 3.514971e-17 -2.768279e-01 -5.579325e-01 2.020288e-21
41.035         -4.923532e+01 -1.058890e+02 2.522623e-17 -4.895826e+01 -1.053308e+02 2.522418e-17 -2.770519e-01 -5.581982e-01 2.056094e-21
41.04          -5.254841e+01 -6.769842e+01 1.551899e-17 -5.227114e+01 -6.714006e+01 1.551685e-17 -2.772724e-01 -5.583578e-01 2.140733e-21
41.045         -3.833945e+01 -1.801366e+01 2.783567e-18 -3.806223e+01 -1.745548e+01 2.781348e-18 -2.772130e-01 -5.581796e-01 2.219092e-21
41.05          -8.503844e+01 -3.696895e+00 -3.580332e-19 -8.476085e+01 -3.138184e+00 -3.602895e-19 -2.775872e-01 -5.587111e-01 2.256329e-21
41.055         1.730151e+01 3.485894e+01 -9.484274e-18 1.757849e+01 3.541667e+01 -9.486547e-18 -2.769813e-01 -5.577292e-01 2.273435e-21
41.06          1.703549e+01 1.775172e+01 -5.304538e-18 1.731266e+01 1.830982e+01 -5.306807e-18 -2.771736e-01 -5.581061e-01 2.269118e-21
41.065         -6.080043e+01 -1.626980e+01 3.556959e-18 -6.052329e+01 -1.571147e+01 3.554718e-18 -2.771410e-01 -5.583256e-01 2.241049e-21
41.07          -1.232546e+02 -2.638630e+01 5.823805e-18 -1.229772e+02 -2.582706e+01 5.821608e-18 -2.774383e-01 -5.592402e-01 2.196859e-21
41.075         -2.210165e+02 -8.580071e+01 2.188734e-17 -2.207381e+02 -8.523946e+01 2.188519e-17 -2.783089e-01 -5.612500e-01 2.152947e-21
41.08          -3.429009e+02 -1.177543e+02 2.973969e-17 -3.426224e+02 -1.171927e+02 2.973754e-17 -2.784783e-01 -5.616402e-01 2.150104e-21