# Force       
# CofR        : (0.000000e+00 0.000000e+00 0.000000e+00)
#
# Time        	total_x total_y total_z	pressure_x pressure_y pressure_z	viscous_x viscous_y viscous_z
0.005          5.591709e-03 8.009289e+01 -2.506824e-17 5.159938e-03 8.009289e+01 -2.506824e-17 4.317710e-04 3.310930e-06 -3.097970e-24
0.01           5.216773e-03 8.009301e+01 -2.506830e-17 4.786253e-03 8.009300e+01 -2.506829e-17 4.305203e-04 3.267663e-06 -3.073736e-24
0.015          5.110787e-03 8.009298e+01 -2.506829e-17 4.681515e-03 8.009297e+01 -2.506829e-17 4.292724e-04 3.224677e-06 -3.049021e-24
0.02           5.002832e-03 8.009334e+01 -2.506841e-17 4.574806e-03 8.009334e+01 -2.506841e-17 4.280263e-04 3.183113e-06 -3.023549e-24
0.025          4.950684e-03 8.009337e+01 -2.506842e-17 4.523903e-03 8.009337e+01 -2.506842e-17 4.267809e-04 3.144738e-06 -2.997395e-24
0.03           4.965816e-03 8.009371e+01 -2.506853e-17 4.540279e-03 8.009371e+01 -2.506853e-17 4.255370e-04 3.102927e-06 -2.969825e-24
0.035          4.958803e-03 8.009398e+01 -2.506862e-17 4.534510e-03 8.009398e+01 -2.506861e-17 4.242932e-04 3.063375e-06 -2.941510e-24
0.04           4.981230e-03 8.009405e+01 -2.506864e-17 4.558181e-03 8.009404e+01 -2.506864e-17 4.230495e-04 3.025536e-06 -2.912642e-24
0.045          5.016486e-03 8.009416e+01 -2.506868e-17 4.594680e-03 8.009416e+01 -2.506867e-17 4.218060e-04 2.988892e-06 -2.883344e-24
0.05           5.064621e-03 8.009418e+01 -2.506869e-17 4.644058e-03 8.009418e+01 -2.506868e-17 4.205631e-04 2.953023e-06 -2.853698e-24
0.055          5.107332e-03 8.009488e+01 -2.506890e-17 4.688011e-03 8.009488e+01 -2.506890e-17 4.193211e-04 2.918435e-06 -2.823792e-24
0.06           5.172353e-03 8.009457e+01 -2.506881e-17 4.754272e-03 8.009457e+01 -2.506881e-17 4.180802e-04 2.886229e-06 -2.793636e-24
0.065          5.230111e-03 8.009458e+01 -2.506882e-17 4.813271e-03 8.009458e+01 -2.506881e-17 4.168408e-04 2.854478e-06 -2.763202e-24
0.07           5.287369e-03 8.009464e+01 -2.506884e-17 4.871766e-03 8.009464e+01 -2.506883e-17 4.156032e-04 2.823356e-06 -2.732466e-24
0.075          5.342502e-03 8.009467e+01 -2.506885e-17 4.928134e-03 8.009467e+01 -2.506885e-17 4.143677e-04 2.792832e-06 -2.701414e-24
0.08           5.396035e-03 8.009469e+01 -2.506886e-17 4.982900e-03 8.009469e+01 -2.506885e-17 4.131346e-04 2.762778e-06 -2.670057e-24
0.085          5.443629e-03 8.009479e+01 -2.506889e-17 5.031725e-03 8.009479e+01 -2.506889e-17 4.119041e-04 2.733634e-06 -2.638403e-24
0.09           5.488032e-03 8.009485e+01 -2.506891e-17 5.077356e-03 8.009484e+01 -2.506890e-17 4.106766e-04 2.704944e-06 -2.606477e-24
0.095          5.532292e-03 8.009486e+01 -2.506891e-17 5.122840e-03 8.009486e+01 -2.506891e-17 4.094524e-04 2.676422e-06 -2.574332e-24
0.1            5.569271e-03 8.009496e+01 -2.506895e-17 5.161040e-03 8.009495e+01 -2.506894e-17 4.082316e-04 2.648168e-06 -2.542009e-24
0.105          5.601985e-03 8.009505e+01 -2.506898e-17 5.194970e-03 8.009505e+01 -2.506897e-17 4.070146e-04 2.620652e-06 -2.509567e-24
0.11           5.629573e-03 8.009509e+01 -2.506899e-17 5.223771e-03 8.009509e+01 -2.506899e-17 4.058013e-04 2.593302e-06 -2.477160e-24
0.115          5.699124e-03 8.009513e+01 -2.506900e-17 5.294531e-03 8.009513e+01 -2.506900e-17 4.045922e-04 2.566394e-06 -2.444310e-24
0.12           5.721317e-03 8.009518e+01 -2.506902e-17 5.317929e-03 8.009517e+01 -2.506902e-17 4.033886e-04 2.540130e-06 -2.410639e-24
0.125          5.746284e-03 8.009522e+01 -2.506903e-17 5.344093e-03 8.009522e+01 -2.506903e-17 4.021905e-04 2.514127e-06 -2.377106e-24
0.13           5.770970e-03 8.009524e+01 -2.506904e-17 5.369972e-03 8.009524e+01 -2.506904e-17 4.009980e-04 2.488382e-06 -2.343770e-24
0.135          5.788204e-03 8.009544e+01 -2.506910e-17 5.388393e-03 8.009544e+01 -2.506910e-17 3.998113e-04 2.463382e-06 -2.310654e-24
0.14           5.808904e-03 8.009540e+01 -2.506909e-17 5.410274e-03 8.009540e+01 -2.506909e-17 3.986304e-04 2.438695e-06 -2.277765e-24
0.145          5.833055e-03 8.009520e+01 -2.506903e-17 5.435600e-03 8.009520e+01 -2.506903e-17 3.974553e-04 2.414135e-06 -2.245114e-24
0.15           5.843161e-03 8.009542e+01 -2.506910e-17 5.446875e-03 8.009542e+01 -2.506910e-17 3.962860e-04 2.389609e-06 -2.212708e-24
0.155          5.858402e-03 8.009545e+01 -2.506911e-17 5.463279e-03 8.009545e+01 -2.506911e-17 3.951226e-04 2.365616e-06 -2.180556e-24
0.16           5.868782e-03 8.009542e+01 -2.506910e-17 5.474817e-03 8.009541e+01 -2.506910e-17 3.939650e-04 2.341471e-06 -2.148672e-24
0.165          5.879542e-03 8.009555e+01 -2.506914e-17 5.486729e-03 8.009555e+01 -2.506914e-17 3.928132e-04 2.317760e-06 -2.117073e-24
0.17           5.883574e-03 8.009549e+01 -2.506912e-17 5.491907e-03 8.009549e+01 -2.506912e-17 3.916672e-04 2.293950e-06 -2.085765e-24
0.175          5.891766e-03 8.009554e+01 -2.506914e-17 5.501239e-03 8.009553e+01 -2.506914e-17 3.905269e-04 2.270486e-06 -2.054749e-24
0.18           5.897439e-03 8.009557e+01 -2.506915e-17 5.508046e-03 8.009557e+01 -2.506915e-17 3.893925e-04 2.247372e-06 -2.024023e-24
0.185          5.902428e-03 8.009564e+01 -2.506917e-17 5.514165e-03 8.009564e+01 -2.506917e-17 3.882637e-04 2.224775e-06 -1.993573e-24
0.19           5.902195e-03 8.009556e+01 -2.506915e-17 5.515054e-03 8.009556e+01 -2.506915e-17 3.871406e-04 2.202667e-06 -1.963386e-24
0.195          5.899953e-03 8.009554e+01 -2.506914e-17 5.513929e-03 8.009554e+01 -2.506914e-17 3.860231e-04 2.179946e-06 -1.933392e-24
0.2            5.906737e-03 8.009560e+01 -2.506916e-17 5.521825e-03 8.009559e+01 -2.506916e-17 3.849113e-04 2.157896e-06 -1.903976e-24
0.205          5.905509e-03 8.009563e+01 -2.506917e-17 5.521704e-03 8.009562e+01 -2.506917e-17 3.838052e-04 2.136281e-06 -1.875027e-24
0.21           5.904898e-03 8.009565e+01 -2.506918e-17 5.522194e-03 8.009564e+01 -2.506918e-17 3.827047e-04 2.114898e-06 -1.846335e-24
0.215          5.903434e-03 8.009568e+01 -2.506919e-17 5.521824e-03 8.009568e+01 -2.506919e-17 3.816099e-04 2.093973e-06 -1.817924e-24
0.22           5.901228e-03 8.009572e+01 -2.506920e-17 5.520707e-03 8.009572e+01 -2.506920e-17 3.805207e-04 2.073461e-06 -1.789802e-24
0.225          5.898137e-03 8.009576e+01 -2.506922e-17 5.518700e-03 8.009576e+01 -2.506921e-17 3.794371e-04 2.053360e-06 -1.761971e-24
0.23           5.897325e-03 8.009583e+01 -2.506924e-17 5.518966e-03 8.009583e+01 -2.506923e-17 3.783591e-04 2.033783e-06 -1.734435e-24
0.235          5.892997e-03 8.009587e+01 -2.506925e-17 5.515710e-03 8.009587e+01 -2.506925e-17 3.772867e-04 2.014690e-06 -1.707193e-24
0.24           5.889308e-03 8.009591e+01 -2.506926e-17 5.513088e-03 8.009591e+01 -2.506926e-17 3.762199e-04 1.996020e-06 -1.680244e-24
0.245          5.885133e-03 8.009596e+01 -2.506928e-17 5.509974e-03 8.009596e+01 -2.506928e-17 3.751586e-04 1.977796e-06 -1.653586e-24
0.25           5.877332e-03 8.009592e+01 -2.506927e-17 5.503229e-03 8.009592e+01 -2.506926e-17 3.741029e-04 1.959942e-06 -1.627219e-24
0.255          5.870406e-03 8.009593e+01 -2.506927e-17 5.497353e-03 8.009593e+01 -2.506927e-17 3.730527e-04 1.941868e-06 -1.601142e-24
0.26           5.865631e-03 8.009600e+01 -2.506929e-17 5.493623e-03 8.009600e+01 -2.506929e-17 3.720080e-04 1.924408e-06 -1.575355e-24
0.265          5.858815e-03 8.009600e+01 -2.506929e-17 5.487846e-03 8.009600e+01 -2.506929e-17 3.709688e-04 1.907398e-06 -1.549857e-24
0.27           5.851369e-03 8.009603e+01 -2.506930e-17 5.481434e-03 8.009603e+01 -2.506930e-17 3.699351e-04 1.890537e-06 -1.524649e-24
0.275          5.844663e-03 8.009609e+01 -2.506932e-17 5.475756e-03 8.009609e+01 -2.506932e-17 3.689068e-04 1.874172e-06 -1.499734e-24
0.28           5.834611e-03 8.009614e+01 -2.506934e-17 5.466727e-03 8.009614e+01 -2.506933e-17 3.678839e-04 1.858262e-06 -1.475113e-24
0.285          5.827474e-03 8.009619e+01 -2.506935e-17 5.460608e-03 8.009618e+01 -2.506935e-17 3.668664e-04 1.842778e-06 -1.450785e-24
0.29           5.819372e-03 8.009623e+01 -2.506936e-17 5.453518e-03 8.009623e+01 -2.506936e-17 3.658544e-04 1.827736e-06 -1.426749e-24
0.295          5.811137e-03 8.009626e+01 -2.506937e-17 5.446290e-03 8.009626e+01 -2.506937e-17 3.648477e-04 1.812978e-06 -1.402992e-24
0.3            5.802262e-03 8.009631e+01 -2.506939e-17 5.438415e-03 8.009631e+01 -2.506939e-17 3.638463e-04 1.798685e-06 -1.379498e-24
0.305          5.793934e-03 8.009628e+01 -2.506938e-17 5.431084e-03 8.009628e+01 -2.506938e-17 3.628503e-04 1.784674e-06 -1.356295e-24
0.31           5.784846e-03 8.009634e+01 -2.506940e-17 5.422987e-03 8.009634e+01 -2.506940e-17 3.618596e-04 1.770805e-06 -1.333384e-24
0.315          5.777045e-03 8.009645e+01 -2.506943e-17 5.416171e-03 8.009645e+01 -2.506943e-17 3.608742e-04 1.757835e-06 -1.310766e-24
0.32           5.767406e-03 8.009647e+01 -2.506944e-17 5.407512e-03 8.009647e+01 -2.506944e-17 3.598940e-04 1.745094e-06 -1.288440e-24
0.325          5.758254e-03 8.009651e+01 -2.506945e-17 5.399335e-03 8.009651e+01 -2.506945e-17 3.589190e-04 1.732672e-06 -1.266408e-24
0.33           5.748766e-03 8.009656e+01 -2.506947e-17 5.390817e-03 8.009656e+01 -2.506947e-17 3.579493e-04 1.720590e-06 -1.244668e-24
0.335          5.739617e-03 8.009659e+01 -2.506948e-17 5.382632e-03 8.009658e+01 -2.506948e-17 3.569849e-04 1.708793e-06 -1.223214e-24
0.34           5.730031e-03 8.009663e+01 -2.506949e-17 5.374006e-03 8.009662e+01 -2.506949e-17 3.560257e-04 1.697286e-06 -1.202051e-24
0.345          5.720325e-03 8.009667e+01 -2.506950e-17 5.365254e-03 8.009666e+01 -2.506950e-17 3.550718e-04 1.686069e-06 -1.181178e-24
0.35           5.710344e-03 8.009670e+01 -2.506951e-17 5.356221e-03 8.009670e+01 -2.506951e-17 3.541230e-04 1.675141e-06 -1.160593e-24
0.355          5.700179e-03 8.009675e+01 -2.506953e-17 5.346999e-03 8.009675e+01 -2.506953e-17 3.531794e-04 1.664504e-06 -1.140296e-24
0.36           5.689514e-03 8.009680e+01 -2.506954e-17 5.337274e-03 8.009679e+01 -2.506954e-17 3.522410e-04 1.654184e-06 -1.120283e-24
0.365          5.680950e-03 8.009680e+01 -2.506954e-17 5.329643e-03 8.009680e+01 -2.506954e-17 3.513076e-04 1.643984e-06 -1.100553e-24
0.37           5.670558e-03 8.009687e+01 -2.506956e-17 5.320179e-03 8.009686e+01 -2.506956e-17 3.503792e-04 1.634122e-06 -1.081102e-24
0.375          5.658710e-03 8.009682e+01 -2.506955e-17 5.309255e-03 8.009682e+01 -2.506955e-17 3.494559e-04 1.624475e-06 -1.061932e-24
0.38           5.650257e-03 8.009689e+01 -2.506957e-17 5.301720e-03 8.009689e+01 -2.506957e-17 3.485375e-04 1.614960e-06 -1.043041e-24
0.385          5.639019e-03 8.009693e+01 -2.506958e-17 5.291395e-03 8.009693e+01 -2.506958e-17 3.476240e-04 1.605802e-06 -1.024425e-24
0.39           5.628677e-03 8.009705e+01 -2.506962e-17 5.281962e-03 8.009705e+01 -2.506962e-17 3.467154e-04 1.596968e-06 -1.006079e-24
0.395          5.620776e-03 8.009708e+01 -2.506963e-17 5.274965e-03 8.009708e+01 -2.506963e-17 3.458117e-04 1.588924e-06 -9.880031e-25
0.4            5.608406e-03 8.009712e+01 -2.506964e-17 5.263493e-03 8.009712e+01 -2.506964e-17 3.449128e-04 1.581044e-06 -9.701920e-25
0.405          5.597442e-03 8.009716e+01 -2.506965e-17 5.253423e-03 8.009716e+01 -2.506965e-17 3.440187e-04 1.573460e-06 -9.526544e-25
0.41           5.586385e-03 8.009720e+01 -2.506967e-17 5.243256e-03 8.009720e+01 -2.506967e-17 3.431295e-04 1.566248e-06 -9.354105e-25
0.415          5.574422e-03 8.009722e+01 -2.506967e-17 5.232177e-03 8.009722e+01 -2.506967e-17 3.422450e-04 1.559325e-06 -9.184596e-25
0.42           5.562720e-03 8.009726e+01 -2.506969e-17 5.221354e-03 8.009726e+01 -2.506969e-17 3.413654e-04 1.552762e-06 -9.018020e-25
0.425          5.552963e-03 8.009728e+01 -2.506969e-17 5.212472e-03 8.009728e+01 -2.506969e-17 3.404904e-04 1.546503e-06 -8.854426e-25
0.43           5.539949e-03 8.009732e+01 -2.506970e-17 5.200329e-03 8.009732e+01 -2.506970e-17 3.396201e-04 1.540573e-06 -8.693901e-25
0.435          5.526625e-03 8.009735e+01 -2.506971e-17 5.187871e-03 8.009735e+01 -2.506971e-17 3.387544e-04 1.534921e-06 -8.536864e-25
0.44           5.512416e-03 8.009736e+01 -2.506972e-17 5.174523e-03 8.009736e+01 -2.506972e-17 3.378931e-04 1.529455e-06 -8.386025e-25
0.445          5.506030e-03 8.009745e+01 -2.506974e-17 5.168993e-03 8.009745e+01 -2.506974e-17 3.370368e-04 1.524768e-06 -8.223210e-25
0.45           5.496087e-03 8.009747e+01 -2.506975e-17 5.159901e-03 8.009747e+01 -2.506975e-17 3.361854e-04 1.520386e-06 -8.064016e-25
0.455          5.485476e-03 8.009749e+01 -2.506976e-17 5.150138e-03 8.009749e+01 -2.506976e-17 3.353387e-04 1.516218e-06 -7.909638e-25
0.46           5.473214e-03 8.009752e+01 -2.506977e-17 5.138718e-03 8.009752e+01 -2.506977e-17 3.344967e-04 1.512292e-06 -7.759032e-25
0.465          5.461277e-03 8.009756e+01 -2.506978e-17 5.127618e-03 8.009756e+01 -2.506978e-17 3.336592e-04 1.508660e-06 -7.611650e-25
0.47           5.449091e-03 8.009758e+01 -2.506979e-17 5.116265e-03 8.009758e+01 -2.506978e-17 3.328262e-04 1.505325e-06 -7.467154e-25
0.475          5.438231e-03 8.009758e+01 -2.506979e-17 5.106234e-03 8.009758e+01 -2.506978e-17 3.319977e-04 1.502118e-06 -7.325306e-25
0.48           5.424812e-03 8.009766e+01 -2.506981e-17 5.093638e-03 8.009765e+01 -2.506981e-17 3.311735e-04 1.499289e-06 -7.185883e-25
0.485          5.412090e-03 8.009770e+01 -2.506982e-17 5.081736e-03 8.009770e+01 -2.506982e-17 3.303536e-04 1.496893e-06 -7.048796e-25
0.49           5.400500e-03 8.009773e+01 -2.506983e-17 5.070962e-03 8.009772e+01 -2.506983e-17 3.295381e-04 1.494725e-06 -6.913930e-25
0.495          5.388687e-03 8.009775e+01 -2.506984e-17 5.059960e-03 8.009775e+01 -2.506984e-17 3.287268e-04 1.492789e-06 -6.781221e-25
0.5            5.376924e-03 8.009778e+01 -2.506985e-17 5.049005e-03 8.009778e+01 -2.506984e-17 3.279197e-04 1.491090e-06 -6.650617e-25
0.505          5.365768e-03 8.009779e+01 -2.506985e-17 5.038651e-03 8.009779e+01 -2.506985e-17 3.271168e-04 1.489612e-06 -6.522077e-25
0.51           5.353267e-03 8.009784e+01 -2.506987e-17 5.026949e-03 8.009784e+01 -2.506986e-17 3.263180e-04 1.488422e-06 -6.395566e-25
0.515          5.341768e-03 8.009787e+01 -2.506987e-17 5.016244e-03 8.009787e+01 -2.506987e-17 3.255234e-04 1.487483e-06 -6.271054e-25
0.52           5.330317e-03 8.009791e+01 -2.506989e-17 5.005584e-03 8.009791e+01 -2.506988e-17 3.247328e-04 1.486793e-06 -6.148511e-25
0.525          5.318886e-03 8.009795e+01 -2.506990e-17 4.994940e-03 8.009794e+01 -2.506990e-17 3.239463e-04 1.486359e-06 -6.027910e-25
0.53           5.307708e-03 8.009795e+01 -2.506990e-17 4.984545e-03 8.009795e+01 -2.506990e-17 3.231639e-04 1.486209e-06 -5.909219e-25
0.535          5.297668e-03 8.009794e+01 -2.506990e-17 4.975283e-03 8.009794e+01 -2.506989e-17 3.223854e-04 1.485953e-06 -5.792402e-25
0.54           5.286545e-03 8.009798e+01 -2.506991e-17 4.964934e-03 8.009798e+01 -2.506991e-17 3.216110e-04 1.485933e-06 -5.677427e-25
0.545          5.273514e-03 8.009801e+01 -2.506992e-17 4.952673e-03 8.009801e+01 -2.506992e-17 3.208405e-04 1.486148e-06 -5.564255e-25
0.55           5.262426e-03 8.009805e+01 -2.506993e-17 4.942352e-03 8.009805e+01 -2.506993e-17 3.200739e-04 1.486589e-06 -5.452812e-25
0.555          5.251393e-03 8.009808e+01 -2.506994e-17 4.932081e-03 8.009808e+01 -2.506994e-17 3.193112e-04 1.487253e-06 -5.342922e-25
0.56           5.241434e-03 8.009812e+01 -2.506995e-17 4.922882e-03 8.009811e+01 -2.506995e-17 3.185525e-04 1.488138e-06 -5.233963e-25
0.565          5.221160e-03 8.009816e+01 -2.506996e-17 4.903363e-03 8.009816e+01 -2.506996e-17 3.177976e-04 1.489273e-06 -5.129212e-25
0.57           5.212312e-03 8.009817e+01 -2.506996e-17 4.895266e-03 8.009817e+01 -2.506996e-17 3.170465e-04 1.493233e-06 -5.031017e-25
0.575          5.200703e-03 8.009815e+01 -2.506996e-17 4.884404e-03 8.009815e+01 -2.506996e-17 3.162991e-04 1.498197e-06 -4.933597e-25
0.58           5.190258e-03 8.009819e+01 -2.506997e-17 4.874703e-03 8.009819e+01 -2.506997e-17 3.155554e-04 1.503318e-06 -4.837540e-25
0.585          5.179399e-03 8.009823e+01 -2.506998e-17 4.864584e-03 8.009822e+01 -2.506998e-17 3.148154e-04 1.508644e-06 -4.743029e-25
0.59           5.168159e-03 8.009826e+01 -2.506999e-17 4.854080e-03 8.009826e+01 -2.506999e-17 3.140791e-04 1.516283e-06 -4.650140e-25
0.595          5.157045e-03 8.009829e+01 -2.507000e-17 4.843699e-03 8.009829e+01 -2.507000e-17 3.133465e-04 1.524191e-06 -4.558904e-25
0.6            5.145927e-03 8.009831e+01 -2.507001e-17 4.833309e-03 8.009831e+01 -2.507001e-17 3.126174e-04 1.532233e-06 -4.469340e-25
0.605          5.134047e-03 8.009837e+01 -2.507003e-17 4.822155e-03 8.009837e+01 -2.507003e-17 3.118920e-04 1.540528e-06 -4.381446e-25
0.61           5.122775e-03 8.009839e+01 -2.507003e-17 4.811605e-03 8.009839e+01 -2.507003e-17 3.111702e-04 1.548960e-06 -4.295217e-25
0.615          5.111483e-03 8.009842e+01 -2.507004e-17 4.801031e-03 8.009842e+01 -2.507004e-17 3.104519e-04 1.557519e-06 -4.210650e-25
0.62           5.100250e-03 8.009844e+01 -2.507005e-17 4.790513e-03 8.009844e+01 -2.507005e-17 3.097371e-04 1.566210e-06 -4.127736e-25
0.625          5.089091e-03 8.009847e+01 -2.507006e-17 4.780065e-03 8.009847e+01 -2.507006e-17 3.090259e-04 1.575042e-06 -4.046452e-25
0.63           5.078396e-03 8.009850e+01 -2.507007e-17 4.770078e-03 8.009850e+01 -2.507007e-17 3.083181e-04 1.584020e-06 -3.966745e-25
0.635          5.066306e-03 8.009850e+01 -2.507007e-17 4.758692e-03 8.009850e+01 -2.507007e-17 3.076139e-04 1.593073e-06 -3.888460e-25
0.64           5.049907e-03 8.009852e+01 -2.507007e-17 4.742994e-03 8.009852e+01 -2.507007e-17 3.069130e-04 1.602191e-06 -3.811710e-25
0.645          5.040171e-03 8.009854e+01 -2.507008e-17 4.733956e-03 8.009854e+01 -2.507008e-17 3.062155e-04 1.611375e-06 -3.739215e-25
0.65           5.031363e-03 8.009864e+01 -2.507011e-17 4.725842e-03 8.009864e+01 -2.507011e-17 3.055215e-04 1.621033e-06 -3.667864e-25
0.655          5.019929e-03 8.009864e+01 -2.507011e-17 4.715098e-03 8.009864e+01 -2.507011e-17 3.048307e-04 1.630763e-06 -3.597992e-25
0.66           5.008317e-03 8.009870e+01 -2.507013e-17 4.704173e-03 8.009870e+01 -2.507013e-17 3.041433e-04 1.640683e-06 -3.529664e-25
0.665          4.996752e-03 8.009872e+01 -2.507013e-17 4.693292e-03 8.009872e+01 -2.507013e-17 3.034592e-04 1.650752e-06 -3.462899e-25
0.67           4.988817e-03 8.009861e+01 -2.507010e-17 4.686035e-03 8.009860e+01 -2.507010e-17 3.027820e-04 1.658856e-06 -3.397679e-25
0.675          4.975164e-03 8.009871e+01 -2.507013e-17 4.673056e-03 8.009871e+01 -2.507013e-17 3.021081e-04 1.666858e-06 -3.334037e-25
0.68           4.963084e-03 8.009873e+01 -2.507014e-17 4.661646e-03 8.009873e+01 -2.507014e-17 3.014374e-04 1.675059e-06 -3.271972e-25
0.685          4.950109e-03 8.009876e+01 -2.507014e-17 4.649340e-03 8.009875e+01 -2.507014e-17 3.007698e-04 1.683459e-06 -3.211514e-25
0.69           4.933665e-03 8.009878e+01 -2.507015e-17 4.633560e-03 8.009878e+01 -2.507015e-17 3.001053e-04 1.692144e-06 -3.152791e-25
0.695          4.947034e-03 8.009880e+01 -2.507016e-17 4.647590e-03 8.009880e+01 -2.507016e-17 2.994441e-04 1.700563e-06 -3.095121e-25
0.7            4.939943e-03 8.009883e+01 -2.507016e-17 4.641157e-03 8.009882e+01 -2.507016e-17 2.987862e-04 1.708118e-06 -3.037270e-25
0.705          4.925571e-03 8.009885e+01 -2.507017e-17 4.627439e-03 8.009885e+01 -2.507017e-17 2.981313e-04 1.716099e-06 -2.980762e-25
0.71           4.928294e-03 8.009887e+01 -2.507018e-17 4.630815e-03 8.009887e+01 -2.507018e-17 2.974794e-04 1.724285e-06 -2.925532e-25
0.715          4.915787e-03 8.009890e+01 -2.507019e-17 4.618956e-03 8.009890e+01 -2.507019e-17 2.968306e-04 1.732534e-06 -2.871708e-25
0.72           4.902750e-03 8.009891e+01 -2.507019e-17 4.606565e-03 8.009891e+01 -2.507019e-17 2.961847e-04 1.740929e-06 -2.819052e-25
0.725          4.892729e-03 8.009893e+01 -2.507020e-17 4.597187e-03 8.009893e+01 -2.507020e-17 2.955419e-04 1.749460e-06 -2.767569e-25
0.73           4.882776e-03 8.009896e+01 -2.507020e-17 4.587874e-03 8.009895e+01 -2.507020e-17 2.949019e-04 1.758117e-06 -2.717249e-25
0.735          4.872105e-03 8.009900e+01 -2.507022e-17 4.577840e-03 8.009900e+01 -2.507022e-17 2.942650e-04 1.766978e-06 -2.668073e-25
0.74           4.862427e-03 8.009902e+01 -2.507022e-17 4.568796e-03 8.009902e+01 -2.507022e-17 2.936309e-04 1.775983e-06 -2.620017e-25
0.745          4.852598e-03 8.009904e+01 -2.507023e-17 4.559599e-03 8.009904e+01 -2.507023e-17 2.929997e-04 1.785107e-06 -2.573057e-25
0.75           4.842763e-03 8.009906e+01 -2.507023e-17 4.550392e-03 8.009906e+01 -2.507023e-17 2.923714e-04 1.794336e-06 -2.527170e-25
0.755          4.833066e-03 8.009908e+01 -2.507024e-17 4.541320e-03 8.009907e+01 -2.507024e-17 2.917460e-04 1.803672e-06 -2.482334e-25
0.76           4.823201e-03 8.009910e+01 -2.507025e-17 4.532077e-03 8.009909e+01 -2.507025e-17 2.911234e-04 1.813114e-06 -2.438523e-25
0.765          4.813198e-03 8.009911e+01 -2.507025e-17 4.522691e-03 8.009911e+01 -2.507025e-17 2.905072e-04 1.824656e-06 -2.395723e-25
0.77           4.803784e-03 8.009913e+01 -2.507026e-17 4.513886e-03 8.009913e+01 -2.507026e-17 2.898986e-04 1.839003e-06 -2.353889e-25
0.775          4.794643e-03 8.009915e+01 -2.507026e-17 4.505350e-03 8.009915e+01 -2.507026e-17 2.892927e-04 1.853431e-06 -2.313006e-25
0.78           4.788515e-03 8.009917e+01 -2.507027e-17 4.499826e-03 8.009917e+01 -2.507027e-17 2.886896e-04 1.867979e-06 -2.273055e-25
0.785          4.771998e-03 8.009919e+01 -2.507027e-17 4.483909e-03 8.009919e+01 -2.507027e-17 2.880891e-04 1.882408e-06 -2.233962e-25
0.79           4.762299e-03 8.009921e+01 -2.507028e-17 4.474808e-03 8.009921e+01 -2.507028e-17 2.874913e-04 1.896928e-06 -2.195738e-25
0.795          4.753147e-03 8.009923e+01 -2.507029e-17 4.466251e-03 8.009923e+01 -2.507029e-17 2.868961e-04 1.911519e-06 -2.158371e-25
0.8            4.744016e-03 8.009925e+01 -2.507029e-17 4.457713e-03 8.009925e+01 -2.507029e-17 2.863036e-04 1.926171e-06 -2.121841e-25
0.805          4.734543e-03 8.009927e+01 -2.507030e-17 4.448830e-03 8.009926e+01 -2.507030e-17 2.857137e-04 1.940881e-06 -2.086131e-25
0.81           4.725277e-03 8.009927e+01 -2.507030e-17 4.440150e-03 8.009927e+01 -2.507030e-17 2.851277e-04 1.954880e-06 -2.051225e-25
0.815          4.716508e-03 8.009930e+01 -2.507031e-17 4.431962e-03 8.009930e+01 -2.507031e-17 2.845454e-04 1.968303e-06 -2.017104e-25
0.82           4.707567e-03 8.009934e+01 -2.507032e-17 4.423602e-03 8.009934e+01 -2.507032e-17 2.839657e-04 1.981838e-06 -1.983744e-25
0.825          4.699881e-03 8.009931e+01 -2.507031e-17 4.416492e-03 8.009931e+01 -2.507031e-17 2.833885e-04 1.995378e-06 -1.951130e-25
0.83           4.690876e-03 8.009933e+01 -2.507032e-17 4.408063e-03 8.009933e+01 -2.507032e-17 2.828138e-04 2.008897e-06 -1.919244e-25
0.835          4.681855e-03 8.009936e+01 -2.507032e-17 4.399614e-03 8.009935e+01 -2.507032e-17 2.822416e-04 2.022494e-06 -1.888072e-25
0.84           4.673101e-03 8.009937e+01 -2.507033e-17 4.391429e-03 8.009937e+01 -2.507033e-17 2.816719e-04 2.036141e-06 -1.857597e-25
0.845          4.664560e-03 8.009938e+01 -2.507033e-17 4.383455e-03 8.009938e+01 -2.507033e-17 2.811047e-04 2.049827e-06 -1.827807e-25
0.85           4.655791e-03 8.009941e+01 -2.507034e-17 4.375251e-03 8.009941e+01 -2.507034e-17 2.805398e-04 2.063592e-06 -1.798686e-25
0.855          4.647393e-03 8.009943e+01 -2.507035e-17 4.367416e-03 8.009943e+01 -2.507035e-17 2.799775e-04 2.077397e-06 -1.770225e-25
0.86           4.638930e-03 8.009943e+01 -2.507035e-17 4.359512e-03 8.009943e+01 -2.507035e-17 2.794175e-04 2.091220e-06 -1.742417e-25
0.865          4.630656e-03 8.009945e+01 -2.507035e-17 4.351796e-03 8.009945e+01 -2.507035e-17 2.788599e-04 2.105080e-06 -1.715248e-25
0.87           4.622512e-03 8.009946e+01 -2.507036e-17 4.344207e-03 8.009946e+01 -2.507036e-17 2.783047e-04 2.118976e-06 -1.688706e-25
0.875          4.614486e-03 8.009948e+01 -2.507036e-17 4.336735e-03 8.009948e+01 -2.507036e-17 2.777519e-04 2.132912e-06 -1.662785e-25
0.88           4.606379e-03 8.009949e+01 -2.507036e-17 4.329178e-03 8.009948e+01 -2.507036e-17 2.772014e-04 2.146847e-06 -1.637477e-25
0.885          4.598732e-03 8.009950e+01 -2.507037e-17 4.322079e-03 8.009950e+01 -2.507037e-17 2.766532e-04 2.160817e-06 -1.612776e-25
0.89           4.590091e-03 8.009951e+01 -2.507037e-17 4.313983e-03 8.009951e+01 -2.507037e-17 2.761074e-04 2.174806e-06 -1.588674e-25
0.895          4.582431e-03 8.009952e+01 -2.507038e-17 4.306867e-03 8.009952e+01 -2.507038e-17 2.755639e-04 2.188821e-06 -1.565169e-25
0.9            4.574329e-03 8.009955e+01 -2.507038e-17 4.299306e-03 8.009955e+01 -2.507038e-17 2.750226e-04 2.202854e-06 -1.542255e-25
0.905          4.566822e-03 8.009957e+01 -2.507039e-17 4.292339e-03 8.009957e+01 -2.507039e-17 2.744836e-04 2.216974e-06 -1.519928e-25
0.91           4.558866e-03 8.009957e+01 -2.507039e-17 4.284919e-03 8.009957e+01 -2.507039e-17 2.739468e-04 2.231072e-06 -1.498187e-25
0.915          4.551225e-03 8.009957e+01 -2.507039e-17 4.277812e-03 8.009957e+01 -2.507039e-17 2.734123e-04 2.245164e-06 -1.477026e-25
0.92           4.543894e-03 8.009958e+01 -2.507039e-17 4.271014e-03 8.009958e+01 -2.507039e-17 2.728800e-04 2.259266e-06 -1.456445e-25
0.925          4.536594e-03 8.009961e+01 -2.507040e-17 4.264244e-03 8.009961e+01 -2.507040e-17 2.723500e-04 2.273409e-06 -1.436439e-25
0.93           4.529558e-03 8.009961e+01 -2.507040e-17 4.257736e-03 8.009961e+01 -2.507040e-17 2.718221e-04 2.287578e-06 -1.417007e-25
0.935          4.521442e-03 8.009965e+01 -2.507041e-17 4.250145e-03 8.009965e+01 -2.507041e-17 2.712964e-04 2.301784e-06 -1.398133e-25
0.94           4.513774e-03 8.009968e+01 -2.507042e-17 4.243002e-03 8.009968e+01 -2.507042e-17 2.707728e-04 2.316100e-06 -1.379792e-25
0.945          4.507167e-03 8.009967e+01 -2.507042e-17 4.236916e-03 8.009967e+01 -2.507042e-17 2.702514e-04 2.330449e-06 -1.362001e-25
0.95           4.500322e-03 8.009967e+01 -2.507042e-17 4.230590e-03 8.009967e+01 -2.507042e-17 2.697321e-04 2.344706e-06 -1.344752e-25
0.955          4.493299e-03 8.009969e+01 -2.507042e-17 4.224084e-03 8.009969e+01 -2.507042e-17 2.692150e-04 2.358999e-06 -1.328033e-25
0.96           4.486394e-03 8.009970e+01 -2.507043e-17 4.217694e-03 8.009970e+01 -2.507043e-17 2.687000e-04 2.373314e-06 -1.311836e-25
0.965          4.479497e-03 8.009971e+01 -2.507043e-17 4.211310e-03 8.009971e+01 -2.507043e-17 2.681870e-04 2.387648e-06 -1.296142e-25
0.97           4.473220e-03 8.009972e+01 -2.507043e-17 4.205544e-03 8.009972e+01 -2.507043e-17 2.676761e-04 2.401998e-06 -1.280936e-25
0.975          4.466857e-03 8.009975e+01 -2.507044e-17 4.199690e-03 8.009974e+01 -2.507044e-17 2.671673e-04 2.416368e-06 -1.266210e-25
0.98           4.460243e-03 8.009975e+01 -2.507044e-17 4.193583e-03 8.009975e+01 -2.507044e-17 2.666606e-04 2.430790e-06 -1.251952e-25
0.985          4.453660e-03 8.009976e+01 -2.507045e-17 4.187504e-03 8.009976e+01 -2.507045e-17 2.661559e-04 2.445226e-06 -1.238154e-25
0.99           4.447151e-03 8.009978e+01 -2.507045e-17 4.181497e-03 8.009977e+01 -2.507045e-17 2.656532e-04 2.459683e-06 -1.224803e-25
0.995          4.441232e-03 8.009976e+01 -2.507045e-17 4.176079e-03 8.009976e+01 -2.507045e-17 2.651525e-04 2.474148e-06 -1.211895e-25
1              4.434748e-03 8.009978e+01 -2.507045e-17 4.170095e-03 8.009978e+01 -2.507045e-17 2.646539e-04 2.488575e-06 -1.199416e-25
1.005          4.428461e-03 8.009979e+01 -2.507045e-17 4.164303e-03 8.009978e+01 -2.507045e-17 2.641572e-04 2.503020e-06 -1.187350e-25
1.01           4.422291e-03 8.009979e+01 -2.507046e-17 4.158628e-03 8.009979e+01 -2.507045e-17 2.636626e-04 2.517575e-06 -1.175684e-25
1.015          4.416735e-03 8.009982e+01 -2.507046e-17 4.153562e-03 8.009981e+01 -2.507046e-17 2.631729e-04 2.533731e-06 -1.164434e-25
1.02           4.411643e-03 8.009985e+01 -2.507047e-17 4.148957e-03 8.009985e+01 -2.507047e-17 2.626860e-04 2.549530e-06 -1.153529e-25
1.025          4.405715e-03 8.009986e+01 -2.507047e-17 4.143512e-03 8.009985e+01 -2.507047e-17 2.622027e-04 2.564437e-06 -1.142952e-25
1.03           4.400471e-03 8.009991e+01 -2.507049e-17 4.138750e-03 8.009991e+01 -2.507049e-17 2.617213e-04 2.579396e-06 -1.132731e-25
1.035          4.395746e-03 8.009993e+01 -2.507050e-17 4.134504e-03 8.009993e+01 -2.507050e-17 2.612418e-04 2.594494e-06 -1.122871e-25
1.04           4.389782e-03 8.009993e+01 -2.507050e-17 4.129018e-03 8.009992e+01 -2.507050e-17 2.607642e-04 2.609592e-06 -1.113379e-25
1.045          4.383039e-03 8.009995e+01 -2.507050e-17 4.122751e-03 8.009995e+01 -2.507050e-17 2.602884e-04 2.624259e-06 -1.104249e-25
1.05           4.378901e-03 8.009995e+01 -2.507050e-17 4.119086e-03 8.009995e+01 -2.507050e-17 2.598146e-04 2.638882e-06 -1.095426e-25
1.055          4.365824e-03 8.009995e+01 -2.507050e-17 4.106482e-03 8.009995e+01 -2.507050e-17 2.593426e-04 2.653471e-06 -1.087305e-25
1.06           4.362464e-03 8.009996e+01 -2.507051e-17 4.103591e-03 8.009996e+01 -2.507051e-17 2.588724e-04 2.668031e-06 -1.080057e-25
1.065          4.357020e-03 8.009998e+01 -2.507051e-17 4.098616e-03 8.009997e+01 -2.507051e-17 2.584041e-04 2.682609e-06 -1.073149e-25
1.07           4.349652e-03 8.009993e+01 -2.507050e-17 4.091714e-03 8.009993e+01 -2.507050e-17 2.579376e-04 2.697199e-06 -1.066655e-25
1.075          4.344587e-03 8.009997e+01 -2.507051e-17 4.087114e-03 8.009997e+01 -2.507051e-17 2.574730e-04 2.711186e-06 -1.060600e-25
1.08           4.338748e-03 8.009998e+01 -2.507051e-17 4.081738e-03 8.009998e+01 -2.507051e-17 2.570103e-04 2.724771e-06 -1.054998e-25
1.085          4.332924e-03 8.009999e+01 -2.507052e-17 4.076372e-03 8.009999e+01 -2.507052e-17 2.565524e-04 2.736753e-06 -1.049856e-25
1.09           4.326241e-03 8.010000e+01 -2.507052e-17 4.070144e-03 8.010000e+01 -2.507052e-17 2.560970e-04 2.748359e-06 -1.045180e-25
1.095          4.320611e-03 8.010001e+01 -2.507052e-17 4.064967e-03 8.010001e+01 -2.507052e-17 2.556434e-04 2.759984e-06 -1.040973e-25
1.1            4.314664e-03 8.010002e+01 -2.507052e-17 4.059472e-03 8.010001e+01 -2.507052e-17 2.551916e-04 2.771622e-06 -1.037239e-25