# Moment      
# CofR        : (0.000000e+00 0.000000e+00 0.000000e+00)
#
# Time        	total_x total_y total_z	pressure_x pressure_y pressure_z	viscous_x viscous_y viscous_z
0.005          -4.004603e+01 2.791124e-03 1.647913e+03 -4.004603e+01 2.575239e-03 1.647925e+03 -1.653853e-06 2.158854e-04 -1.288327e-02
0.01           -4.004611e+01 2.602510e-03 1.647927e+03 -4.004610e+01 2.387250e-03 1.647940e+03 -1.629833e-06 2.152600e-04 -1.284678e-02
0.015          -4.004616e+01 2.545745e-03 1.647933e+03 -4.004616e+01 2.331109e-03 1.647945e+03 -1.606501e-06 2.146361e-04 -1.281034e-02
0.02           -4.004652e+01 2.489941e-03 1.647951e+03 -4.004652e+01 2.275928e-03 1.647964e+03 -1.584419e-06 2.140129e-04 -1.277391e-02
0.025          -4.004651e+01 2.469021e-03 1.647952e+03 -4.004651e+01 2.255631e-03 1.647965e+03 -1.564002e-06 2.133902e-04 -1.273743e-02
0.03           -4.004666e+01 2.472019e-03 1.647958e+03 -4.004666e+01 2.259250e-03 1.647971e+03 -1.541854e-06 2.127682e-04 -1.270107e-02
0.035          -4.004683e+01 2.468082e-03 1.647965e+03 -4.004682e+01 2.255936e-03 1.647978e+03 -1.521129e-06 2.121462e-04 -1.266465e-02
0.04           -4.004695e+01 2.477105e-03 1.647970e+03 -4.004695e+01 2.265580e-03 1.647982e+03 -1.501627e-06 2.115243e-04 -1.262819e-02
0.045          -4.004703e+01 2.494541e-03 1.647972e+03 -4.004703e+01 2.283639e-03 1.647985e+03 -1.483004e-06 2.109026e-04 -1.259169e-02
0.05           -4.004707e+01 2.518044e-03 1.647972e+03 -4.004707e+01 2.307763e-03 1.647985e+03 -1.465011e-06 2.102810e-04 -1.255518e-02
0.055          -4.004740e+01 2.540249e-03 1.647985e+03 -4.004740e+01 2.330589e-03 1.647997e+03 -1.447637e-06 2.096600e-04 -1.251868e-02
0.06           -4.004727e+01 2.573045e-03 1.647977e+03 -4.004726e+01 2.364006e-03 1.647989e+03 -1.431459e-06 2.090395e-04 -1.248215e-02
0.065          -4.004729e+01 2.602513e-03 1.647976e+03 -4.004728e+01 2.394094e-03 1.647988e+03 -1.415534e-06 2.084197e-04 -1.244566e-02
0.07           -4.004731e+01 2.631188e-03 1.647975e+03 -4.004730e+01 2.423387e-03 1.647988e+03 -1.399950e-06 2.078009e-04 -1.240921e-02
0.075          -4.004735e+01 2.659665e-03 1.647975e+03 -4.004735e+01 2.452482e-03 1.647988e+03 -1.384766e-06 2.071831e-04 -1.237280e-02
0.08           -4.004738e+01 2.686947e-03 1.647975e+03 -4.004738e+01 2.480380e-03 1.647987e+03 -1.369932e-06 2.065665e-04 -1.233645e-02
0.085          -4.004743e+01 2.711233e-03 1.647975e+03 -4.004742e+01 2.505282e-03 1.647988e+03 -1.355523e-06 2.059512e-04 -1.230016e-02
0.09           -4.004743e+01 2.735593e-03 1.647974e+03 -4.004743e+01 2.530255e-03 1.647986e+03 -1.341334e-06 2.053374e-04 -1.226395e-02
0.095          -4.004744e+01 2.758092e-03 1.647973e+03 -4.004744e+01 2.553367e-03 1.647986e+03 -1.327192e-06 2.047252e-04 -1.222784e-02
0.1            -4.004749e+01 2.775405e-03 1.647974e+03 -4.004748e+01 2.571290e-03 1.647986e+03 -1.313147e-06 2.041148e-04 -1.219183e-02
0.105          -4.004752e+01 2.792672e-03 1.647974e+03 -4.004752e+01 2.589166e-03 1.647987e+03 -1.299409e-06 2.035062e-04 -1.215592e-02
0.11           -4.004756e+01 2.806341e-03 1.647975e+03 -4.004756e+01 2.603442e-03 1.647987e+03 -1.285764e-06 2.028996e-04 -1.212011e-02
0.115          -4.004758e+01 2.842498e-03 1.647974e+03 -4.004758e+01 2.640203e-03 1.647986e+03 -1.272404e-06 2.022950e-04 -1.208442e-02
0.12           -4.004760e+01 2.854561e-03 1.647974e+03 -4.004760e+01 2.652868e-03 1.647986e+03 -1.259372e-06 2.016932e-04 -1.204889e-02
0.125          -4.004763e+01 2.868118e-03 1.647974e+03 -4.004762e+01 2.667023e-03 1.647986e+03 -1.246484e-06 2.010941e-04 -1.201350e-02
0.13           -4.004764e+01 2.880957e-03 1.647974e+03 -4.004764e+01 2.680459e-03 1.647986e+03 -1.233757e-06 2.004978e-04 -1.197828e-02
0.135          -4.004767e+01 2.892860e-03 1.647975e+03 -4.004767e+01 2.692955e-03 1.647987e+03 -1.221180e-06 1.999045e-04 -1.194323e-02
0.14           -4.004769e+01 2.903147e-03 1.647975e+03 -4.004768e+01 2.703833e-03 1.647987e+03 -1.208768e-06 1.993140e-04 -1.190835e-02
0.145          -4.004769e+01 2.912432e-03 1.647974e+03 -4.004769e+01 2.713706e-03 1.647986e+03 -1.196504e-06 1.987265e-04 -1.187363e-02
0.15           -4.004775e+01 2.919533e-03 1.647976e+03 -4.004775e+01 2.721391e-03 1.647988e+03 -1.184436e-06 1.981418e-04 -1.183908e-02
0.155          -4.004777e+01 2.927067e-03 1.647977e+03 -4.004777e+01 2.729507e-03 1.647988e+03 -1.172657e-06 1.975601e-04 -1.180469e-02
0.16           -4.004777e+01 2.933264e-03 1.647976e+03 -4.004777e+01 2.736283e-03 1.647988e+03 -1.161039e-06 1.969813e-04 -1.177047e-02
0.165          -4.004775e+01 2.937951e-03 1.647976e+03 -4.004775e+01 2.741546e-03 1.647987e+03 -1.149519e-06 1.964054e-04 -1.173642e-02
0.17           -4.004778e+01 2.942524e-03 1.647977e+03 -4.004778e+01 2.746692e-03 1.647988e+03 -1.137896e-06 1.958324e-04 -1.170255e-02
0.175          -4.004784e+01 2.946030e-03 1.647979e+03 -4.004784e+01 2.750768e-03 1.647990e+03 -1.126488e-06 1.952623e-04 -1.166885e-02
0.18           -4.004782e+01 2.950370e-03 1.647978e+03 -4.004782e+01 2.755675e-03 1.647989e+03 -1.115156e-06 1.946951e-04 -1.163531e-02
0.185          -4.004783e+01 2.952737e-03 1.647978e+03 -4.004783e+01 2.758606e-03 1.647990e+03 -1.104045e-06 1.941307e-04 -1.160193e-02
0.19           -4.004784e+01 2.953959e-03 1.647978e+03 -4.004784e+01 2.760390e-03 1.647990e+03 -1.093119e-06 1.935691e-04 -1.156872e-02
0.195          -4.004784e+01 2.953994e-03 1.647978e+03 -4.004784e+01 2.760984e-03 1.647990e+03 -1.082302e-06 1.930104e-04 -1.153567e-02
0.2            -4.004786e+01 2.957425e-03 1.647979e+03 -4.004786e+01 2.764970e-03 1.647990e+03 -1.071603e-06 1.924545e-04 -1.150279e-02
0.205          -4.004789e+01 2.956888e-03 1.647980e+03 -4.004789e+01 2.764987e-03 1.647992e+03 -1.061073e-06 1.919015e-04 -1.147007e-02
0.21           -4.004791e+01 2.956918e-03 1.647981e+03 -4.004791e+01 2.765567e-03 1.647992e+03 -1.050884e-06 1.913513e-04 -1.143750e-02
0.215          -4.004793e+01 2.956136e-03 1.647982e+03 -4.004793e+01 2.765332e-03 1.647993e+03 -1.040889e-06 1.908039e-04 -1.140510e-02
0.22           -4.004794e+01 2.955529e-03 1.647982e+03 -4.004794e+01 2.765269e-03 1.647993e+03 -1.031091e-06 1.902593e-04 -1.137286e-02
0.225          -4.004796e+01 2.955501e-03 1.647983e+03 -4.004796e+01 2.765783e-03 1.647994e+03 -1.021445e-06 1.897175e-04 -1.134077e-02
0.23           -4.004797e+01 2.953813e-03 1.647984e+03 -4.004797e+01 2.764634e-03 1.647995e+03 -1.012012e-06 1.891786e-04 -1.130885e-02
0.235          -4.004801e+01 2.952533e-03 1.647985e+03 -4.004801e+01 2.763890e-03 1.647997e+03 -1.002798e-06 1.886424e-04 -1.127709e-02
0.24           -4.004796e+01 2.948624e-03 1.647983e+03 -4.004796e+01 2.760515e-03 1.647995e+03 -9.935496e-07 1.881090e-04 -1.124549e-02
0.245          -4.004798e+01 2.948083e-03 1.647984e+03 -4.004798e+01 2.760505e-03 1.647996e+03 -9.844499e-07 1.875784e-04 -1.121405e-02
0.25           -4.004802e+01 2.945985e-03 1.647986e+03 -4.004802e+01 2.758934e-03 1.647997e+03 -9.757163e-07 1.870506e-04 -1.118277e-02
0.255          -4.004803e+01 2.943093e-03 1.647986e+03 -4.004802e+01 2.756567e-03 1.647998e+03 -9.670764e-07 1.865255e-04 -1.115165e-02
0.26           -4.004802e+01 2.940665e-03 1.647986e+03 -4.004802e+01 2.754662e-03 1.647997e+03 -9.585412e-07 1.860032e-04 -1.112068e-02
0.265          -4.004804e+01 2.938212e-03 1.647987e+03 -4.004804e+01 2.752728e-03 1.647998e+03 -9.501486e-07 1.854836e-04 -1.108988e-02
0.27           -4.004808e+01 2.933313e-03 1.647989e+03 -4.004808e+01 2.748347e-03 1.648000e+03 -9.420146e-07 1.849668e-04 -1.105923e-02
0.275          -4.004801e+01 2.927904e-03 1.647987e+03 -4.004801e+01 2.743452e-03 1.647998e+03 -9.337676e-07 1.844527e-04 -1.102874e-02
0.28           -4.004804e+01 2.924865e-03 1.647988e+03 -4.004804e+01 2.740924e-03 1.647999e+03 -9.256679e-07 1.839413e-04 -1.099841e-02
0.285          -4.004803e+01 2.921554e-03 1.647988e+03 -4.004803e+01 2.738121e-03 1.647999e+03 -9.177662e-07 1.834326e-04 -1.096824e-02
0.29           -4.004805e+01 2.917782e-03 1.647989e+03 -4.004805e+01 2.734855e-03 1.648000e+03 -9.099316e-07 1.829266e-04 -1.093822e-02
0.295          -4.004807e+01 2.913366e-03 1.647990e+03 -4.004807e+01 2.730942e-03 1.648001e+03 -9.023012e-07 1.824232e-04 -1.090836e-02
0.3            -4.004809e+01 2.909407e-03 1.647991e+03 -4.004809e+01 2.727485e-03 1.648002e+03 -8.948625e-07 1.819226e-04 -1.087865e-02
0.305          -4.004810e+01 2.904735e-03 1.647992e+03 -4.004809e+01 2.723310e-03 1.648003e+03 -8.875529e-07 1.814246e-04 -1.084909e-02
0.31           -4.004811e+01 2.900508e-03 1.647993e+03 -4.004811e+01 2.719579e-03 1.648003e+03 -8.804144e-07 1.809293e-04 -1.081969e-02
0.315          -4.004812e+01 2.896424e-03 1.647993e+03 -4.004812e+01 2.715987e-03 1.648004e+03 -8.734561e-07 1.804366e-04 -1.079043e-02
0.32           -4.004813e+01 2.892289e-03 1.647994e+03 -4.004813e+01 2.712342e-03 1.648005e+03 -8.666070e-07 1.799466e-04 -1.076133e-02
0.325          -4.004814e+01 2.887852e-03 1.647995e+03 -4.004814e+01 2.708393e-03 1.648005e+03 -8.598725e-07 1.794591e-04 -1.073238e-02
0.33           -4.004815e+01 2.883544e-03 1.647995e+03 -4.004815e+01 2.704570e-03 1.648006e+03 -8.532929e-07 1.789743e-04 -1.070358e-02
0.335          -4.004817e+01 2.878790e-03 1.647996e+03 -4.004817e+01 2.700298e-03 1.648007e+03 -8.468187e-07 1.784921e-04 -1.067493e-02
0.34           -4.004819e+01 2.873898e-03 1.647998e+03 -4.004819e+01 2.695885e-03 1.648008e+03 -8.404972e-07 1.780126e-04 -1.064644e-02
0.345          -4.004817e+01 2.870456e-03 1.647997e+03 -4.004817e+01 2.692920e-03 1.648007e+03 -8.342557e-07 1.775356e-04 -1.061809e-02
0.35           -4.004822e+01 2.864906e-03 1.647999e+03 -4.004822e+01 2.687844e-03 1.648010e+03 -8.281547e-07 1.770613e-04 -1.058990e-02
0.355          -4.004824e+01 2.861294e-03 1.648000e+03 -4.004824e+01 2.684704e-03 1.648011e+03 -8.223012e-07 1.765896e-04 -1.056185e-02
0.36           -4.004822e+01 2.853407e-03 1.648000e+03 -4.004822e+01 2.677287e-03 1.648010e+03 -8.163274e-07 1.761204e-04 -1.053396e-02
0.365          -4.004823e+01 2.849225e-03 1.648001e+03 -4.004823e+01 2.673571e-03 1.648011e+03 -8.105053e-07 1.756537e-04 -1.050621e-02
0.37           -4.004827e+01 2.843957e-03 1.648002e+03 -4.004827e+01 2.668767e-03 1.648013e+03 -8.048407e-07 1.751895e-04 -1.047861e-02
0.375          -4.004830e+01 2.839092e-03 1.648004e+03 -4.004830e+01 2.664364e-03 1.648014e+03 -7.993727e-07 1.747279e-04 -1.045115e-02
0.38           -4.004839e+01 2.835226e-03 1.648008e+03 -4.004839e+01 2.660957e-03 1.648019e+03 -7.941832e-07 1.742687e-04 -1.042383e-02
0.385          -4.004826e+01 2.826113e-03 1.648003e+03 -4.004826e+01 2.652301e-03 1.648014e+03 -7.889331e-07 1.738120e-04 -1.039665e-02
0.39           -4.004829e+01 2.820959e-03 1.648005e+03 -4.004829e+01 2.647602e-03 1.648015e+03 -7.836235e-07 1.733578e-04 -1.036963e-02
0.395          -4.004832e+01 2.815813e-03 1.648006e+03 -4.004832e+01 2.642907e-03 1.648017e+03 -7.784967e-07 1.729059e-04 -1.034274e-02
0.4            -4.004834e+01 2.810360e-03 1.648008e+03 -4.004834e+01 2.637903e-03 1.648018e+03 -7.735644e-07 1.724565e-04 -1.031599e-02
0.405          -4.004837e+01 2.804739e-03 1.648009e+03 -4.004837e+01 2.632730e-03 1.648019e+03 -7.688361e-07 1.720095e-04 -1.028937e-02
0.41           -4.004839e+01 2.798939e-03 1.648010e+03 -4.004839e+01 2.627374e-03 1.648021e+03 -7.643143e-07 1.715649e-04 -1.026289e-02
0.415          -4.004841e+01 2.794190e-03 1.648011e+03 -4.004841e+01 2.623067e-03 1.648022e+03 -7.599944e-07 1.711227e-04 -1.023654e-02
0.42           -4.004839e+01 2.789412e-03 1.648011e+03 -4.004838e+01 2.618729e-03 1.648021e+03 -7.558059e-07 1.706829e-04 -1.021034e-02
0.425          -4.004841e+01 2.783267e-03 1.648012e+03 -4.004841e+01 2.613021e-03 1.648022e+03 -7.516281e-07 1.702454e-04 -1.018427e-02
0.43           -4.004842e+01 2.777095e-03 1.648013e+03 -4.004842e+01 2.607285e-03 1.648023e+03 -7.476323e-07 1.698103e-04 -1.015833e-02
0.435          -4.004844e+01 2.770498e-03 1.648014e+03 -4.004844e+01 2.601121e-03 1.648024e+03 -7.437784e-07 1.693775e-04 -1.013253e-02
0.44           -4.004845e+01 2.763528e-03 1.648015e+03 -4.004845e+01 2.594581e-03 1.648025e+03 -7.400778e-07 1.689469e-04 -1.010685e-02
0.445          -4.004848e+01 2.761017e-03 1.648016e+03 -4.004848e+01 2.592499e-03 1.648026e+03 -7.367272e-07 1.685188e-04 -1.008131e-02
0.45           -4.004848e+01 2.756149e-03 1.648017e+03 -4.004848e+01 2.588056e-03 1.648027e+03 -7.334768e-07 1.680931e-04 -1.005591e-02
0.455          -4.004852e+01 2.749904e-03 1.648018e+03 -4.004852e+01 2.582235e-03 1.648028e+03 -7.304077e-07 1.676698e-04 -1.003064e-02
0.46           -4.004853e+01 2.744105e-03 1.648019e+03 -4.004853e+01 2.576857e-03 1.648029e+03 -7.274669e-07 1.672488e-04 -1.000551e-02
0.465          -4.004854e+01 2.738067e-03 1.648020e+03 -4.004854e+01 2.571237e-03 1.648030e+03 -7.246469e-07 1.668301e-04 -9.980507e-03
0.47           -4.004855e+01 2.731964e-03 1.648021e+03 -4.004854e+01 2.565550e-03 1.648031e+03 -7.219440e-07 1.664136e-04 -9.955636e-03
0.475          -4.004856e+01 2.725749e-03 1.648021e+03 -4.004856e+01 2.559750e-03 1.648031e+03 -7.193533e-07 1.659993e-04 -9.930893e-03
0.48           -4.004857e+01 2.719398e-03 1.648022e+03 -4.004857e+01 2.553811e-03 1.648032e+03 -7.169055e-07 1.655873e-04 -9.906275e-03
0.485          -4.004858e+01 2.713157e-03 1.648023e+03 -4.004858e+01 2.547979e-03 1.648033e+03 -7.145794e-07 1.651774e-04 -9.881782e-03
0.49           -4.004861e+01 2.706682e-03 1.648025e+03 -4.004861e+01 2.541912e-03 1.648035e+03 -7.123721e-07 1.647696e-04 -9.857412e-03
0.495          -4.004860e+01 2.701510e-03 1.648025e+03 -4.004859e+01 2.537146e-03 1.648034e+03 -7.103516e-07 1.643640e-04 -9.833162e-03
0.5            -4.004858e+01 2.696190e-03 1.648024e+03 -4.004858e+01 2.532229e-03 1.648034e+03 -7.082399e-07 1.639605e-04 -9.809042e-03
0.505          -4.004860e+01 2.689850e-03 1.648026e+03 -4.004860e+01 2.526291e-03 1.648035e+03 -7.062653e-07 1.635590e-04 -9.785042e-03
0.51           -4.004862e+01 2.683762e-03 1.648027e+03 -4.004862e+01 2.520603e-03 1.648036e+03 -7.044400e-07 1.631597e-04 -9.761159e-03
0.515          -4.004864e+01 2.677763e-03 1.648028e+03 -4.004863e+01 2.515001e-03 1.648037e+03 -7.027403e-07 1.627624e-04 -9.737395e-03
0.52           -4.004865e+01 2.671875e-03 1.648029e+03 -4.004865e+01 2.509508e-03 1.648038e+03 -7.011614e-07 1.623671e-04 -9.713748e-03
0.525          -4.004866e+01 2.666177e-03 1.648029e+03 -4.004866e+01 2.504203e-03 1.648039e+03 -6.996942e-07 1.619739e-04 -9.690218e-03
0.53           -4.004867e+01 2.659440e-03 1.648030e+03 -4.004867e+01 2.497858e-03 1.648040e+03 -6.983307e-07 1.615827e-04 -9.666805e-03
0.535          -4.004868e+01 2.653963e-03 1.648031e+03 -4.004868e+01 2.492770e-03 1.648041e+03 -6.970646e-07 1.611935e-04 -9.643507e-03
0.54           -4.004870e+01 2.648396e-03 1.648032e+03 -4.004870e+01 2.487589e-03 1.648041e+03 -6.958954e-07 1.608063e-04 -9.620324e-03
0.545          -4.004870e+01 2.642635e-03 1.648032e+03 -4.004869e+01 2.482214e-03 1.648042e+03 -6.948038e-07 1.604210e-04 -9.597257e-03
0.55           -4.004872e+01 2.636408e-03 1.648034e+03 -4.004872e+01 2.476370e-03 1.648043e+03 -6.938727e-07 1.600378e-04 -9.574301e-03
0.555          -4.004873e+01 2.630817e-03 1.648034e+03 -4.004873e+01 2.471161e-03 1.648044e+03 -6.929739e-07 1.596565e-04 -9.551461e-03
0.56           -4.004874e+01 2.625694e-03 1.648035e+03 -4.004874e+01 2.466417e-03 1.648045e+03 -6.921718e-07 1.592771e-04 -9.528734e-03
0.565          -4.004875e+01 2.615237e-03 1.648036e+03 -4.004875e+01 2.456337e-03 1.648046e+03 -6.914555e-07 1.588997e-04 -9.506120e-03
0.57           -4.004875e+01 2.611028e-03 1.648037e+03 -4.004875e+01 2.452503e-03 1.648046e+03 -6.921194e-07 1.585241e-04 -9.483558e-03
0.575          -4.004880e+01 2.605408e-03 1.648039e+03 -4.004880e+01 2.447257e-03 1.648048e+03 -6.934831e-07 1.581505e-04 -9.461079e-03
0.58           -4.004880e+01 2.599946e-03 1.648039e+03 -4.004880e+01 2.442167e-03 1.648049e+03 -6.949453e-07 1.577786e-04 -9.438706e-03
0.585          -4.004881e+01 2.594333e-03 1.648040e+03 -4.004881e+01 2.436924e-03 1.648049e+03 -6.964698e-07 1.574086e-04 -9.416441e-03
0.59           -4.004882e+01 2.588616e-03 1.648041e+03 -4.004882e+01 2.431576e-03 1.648050e+03 -6.991261e-07 1.570405e-04 -9.394238e-03
0.595          -4.004883e+01 2.582975e-03 1.648041e+03 -4.004883e+01 2.426301e-03 1.648051e+03 -7.018907e-07 1.566742e-04 -9.372140e-03
0.6            -4.004884e+01 2.577170e-03 1.648042e+03 -4.004884e+01 2.420860e-03 1.648052e+03 -7.047152e-07 1.563097e-04 -9.350148e-03
0.605          -4.004885e+01 2.571328e-03 1.648043e+03 -4.004885e+01 2.415381e-03 1.648052e+03 -7.075996e-07 1.559470e-04 -9.328262e-03
0.61           -4.004886e+01 2.565494e-03 1.648044e+03 -4.004886e+01 2.409908e-03 1.648053e+03 -7.105424e-07 1.555861e-04 -9.306481e-03
0.615          -4.004887e+01 2.559662e-03 1.648044e+03 -4.004887e+01 2.404435e-03 1.648054e+03 -7.135439e-07 1.552270e-04 -9.284804e-03
0.62           -4.004888e+01 2.553841e-03 1.648045e+03 -4.004888e+01 2.398971e-03 1.648054e+03 -7.166042e-07 1.548696e-04 -9.263231e-03
0.625          -4.004889e+01 2.547997e-03 1.648046e+03 -4.004889e+01 2.393483e-03 1.648055e+03 -7.197243e-07 1.545140e-04 -9.241760e-03
0.63           -4.004891e+01 2.541978e-03 1.648047e+03 -4.004891e+01 2.387817e-03 1.648056e+03 -7.229138e-07 1.541601e-04 -9.220392e-03
0.635          -4.004887e+01 2.537170e-03 1.648046e+03 -4.004887e+01 2.383362e-03 1.648055e+03 -7.260157e-07 1.538080e-04 -9.199130e-03
0.64           -4.004889e+01 2.528822e-03 1.648047e+03 -4.004888e+01 2.375364e-03 1.648056e+03 -7.291369e-07 1.534576e-04 -9.177971e-03
0.645          -4.004896e+01 2.525234e-03 1.648050e+03 -4.004896e+01 2.372125e-03 1.648059e+03 -7.324817e-07 1.531089e-04 -9.156906e-03
0.65           -4.004894e+01 2.519047e-03 1.648050e+03 -4.004894e+01 2.366285e-03 1.648059e+03 -7.359367e-07 1.527618e-04 -9.135936e-03
0.655          -4.004894e+01 2.513215e-03 1.648050e+03 -4.004894e+01 2.360799e-03 1.648059e+03 -7.393874e-07 1.524165e-04 -9.115067e-03
0.66           -4.004897e+01 2.507800e-03 1.648052e+03 -4.004897e+01 2.355727e-03 1.648061e+03 -7.428460e-07 1.520728e-04 -9.094298e-03
0.665          -4.004902e+01 2.501822e-03 1.648054e+03 -4.004902e+01 2.350092e-03 1.648063e+03 -7.466946e-07 1.517307e-04 -9.073611e-03
0.67           -4.004902e+01 2.495754e-03 1.648054e+03 -4.004901e+01 2.344362e-03 1.648063e+03 -7.495079e-07 1.513921e-04 -9.053170e-03
0.675          -4.004903e+01 2.490094e-03 1.648055e+03 -4.004903e+01 2.339039e-03 1.648064e+03 -7.523740e-07 1.510552e-04 -9.032825e-03
0.68           -4.004904e+01 2.484307e-03 1.648056e+03 -4.004904e+01 2.333587e-03 1.648065e+03 -7.553279e-07 1.507198e-04 -9.012572e-03
0.685          -4.004904e+01 2.477417e-03 1.648056e+03 -4.004904e+01 2.327031e-03 1.648065e+03 -7.583596e-07 1.503860e-04 -8.992410e-03
0.69           -4.004905e+01 2.468747e-03 1.648057e+03 -4.004905e+01 2.318693e-03 1.648066e+03 -7.615165e-07 1.500538e-04 -8.972337e-03
0.695          -4.004905e+01 2.481318e-03 1.648057e+03 -4.004905e+01 2.331595e-03 1.648066e+03 -7.644658e-07 1.497232e-04 -8.952370e-03
0.7            -4.004906e+01 2.471442e-03 1.648058e+03 -4.004906e+01 2.322048e-03 1.648067e+03 -7.670327e-07 1.493943e-04 -8.932518e-03
0.705          -4.004907e+01 2.464452e-03 1.648058e+03 -4.004907e+01 2.315385e-03 1.648067e+03 -7.697865e-07 1.490668e-04 -8.912748e-03
0.71           -4.004909e+01 2.463728e-03 1.648059e+03 -4.004909e+01 2.314988e-03 1.648068e+03 -7.726466e-07 1.487409e-04 -8.893065e-03
0.715          -4.004910e+01 2.458661e-03 1.648060e+03 -4.004910e+01 2.310245e-03 1.648069e+03 -7.755552e-07 1.484165e-04 -8.873471e-03
0.72           -4.004909e+01 2.452120e-03 1.648060e+03 -4.004909e+01 2.304026e-03 1.648069e+03 -7.785285e-07 1.480935e-04 -8.853965e-03
0.725          -4.004913e+01 2.446761e-03 1.648062e+03 -4.004913e+01 2.298989e-03 1.648071e+03 -7.815874e-07 1.477721e-04 -8.834544e-03
0.73           -4.004913e+01 2.441625e-03 1.648062e+03 -4.004913e+01 2.294173e-03 1.648071e+03 -7.847412e-07 1.474521e-04 -8.815207e-03
0.735          -4.004914e+01 2.436589e-03 1.648063e+03 -4.004914e+01 2.289455e-03 1.648072e+03 -7.879450e-07 1.471336e-04 -8.795957e-03
0.74           -4.004914e+01 2.431024e-03 1.648063e+03 -4.004914e+01 2.284207e-03 1.648072e+03 -7.911972e-07 1.468166e-04 -8.776792e-03
0.745          -4.004915e+01 2.425954e-03 1.648064e+03 -4.004915e+01 2.279453e-03 1.648073e+03 -7.944991e-07 1.465010e-04 -8.757712e-03
0.75           -4.004916e+01 2.420845e-03 1.648065e+03 -4.004916e+01 2.274658e-03 1.648073e+03 -7.978495e-07 1.461869e-04 -8.738716e-03
0.755          -4.004916e+01 2.415750e-03 1.648065e+03 -4.004916e+01 2.269876e-03 1.648074e+03 -8.012458e-07 1.458741e-04 -8.719804e-03
0.76           -4.004917e+01 2.410632e-03 1.648066e+03 -4.004917e+01 2.265069e-03 1.648075e+03 -8.046845e-07 1.455628e-04 -8.700976e-03
0.765          -4.004918e+01 2.405340e-03 1.648067e+03 -4.004918e+01 2.260085e-03 1.648075e+03 -8.091901e-07 1.452547e-04 -8.682300e-03
0.77           -4.004919e+01 2.400430e-03 1.648067e+03 -4.004919e+01 2.255480e-03 1.648076e+03 -8.150909e-07 1.449504e-04 -8.663801e-03
0.775          -4.004919e+01 2.395512e-03 1.648068e+03 -4.004919e+01 2.250865e-03 1.648076e+03 -8.210143e-07 1.446475e-04 -8.645384e-03
0.78           -4.004920e+01 2.391045e-03 1.648068e+03 -4.004920e+01 2.246699e-03 1.648077e+03 -8.269671e-07 1.443459e-04 -8.627047e-03
0.785          -4.004919e+01 2.383127e-03 1.648068e+03 -4.004919e+01 2.239082e-03 1.648077e+03 -8.328918e-07 1.440457e-04 -8.608791e-03
0.79           -4.004917e+01 2.377336e-03 1.648068e+03 -4.004917e+01 2.233589e-03 1.648076e+03 -8.387325e-07 1.437468e-04 -8.590617e-03
0.795          -4.004928e+01 2.376617e-03 1.648072e+03 -4.004928e+01 2.233168e-03 1.648081e+03 -8.448720e-07 1.434492e-04 -8.572511e-03
0.8            -4.004927e+01 2.371355e-03 1.648072e+03 -4.004927e+01 2.228202e-03 1.648081e+03 -8.510759e-07 1.431529e-04 -8.554482e-03
0.805          -4.004928e+01 2.366397e-03 1.648073e+03 -4.004928e+01 2.223539e-03 1.648081e+03 -8.572934e-07 1.428579e-04 -8.536531e-03
0.81           -4.004928e+01 2.361482e-03 1.648073e+03 -4.004928e+01 2.218917e-03 1.648082e+03 -8.631561e-07 1.425649e-04 -8.518709e-03
0.815          -4.004929e+01 2.356670e-03 1.648074e+03 -4.004929e+01 2.214397e-03 1.648082e+03 -8.687083e-07 1.422738e-04 -8.501010e-03
0.82           -4.004930e+01 2.351547e-03 1.648075e+03 -4.004930e+01 2.209563e-03 1.648083e+03 -8.742932e-07 1.419839e-04 -8.483387e-03
0.825          -4.004930e+01 2.347280e-03 1.648075e+03 -4.004930e+01 2.205585e-03 1.648083e+03 -8.799097e-07 1.416953e-04 -8.465838e-03
0.83           -4.004931e+01 2.342464e-03 1.648076e+03 -4.004931e+01 2.201056e-03 1.648084e+03 -8.855336e-07 1.414080e-04 -8.448364e-03
0.835          -4.004932e+01 2.337809e-03 1.648076e+03 -4.004932e+01 2.196687e-03 1.648085e+03 -8.911874e-07 1.411218e-04 -8.430963e-03
0.84           -4.004932e+01 2.333209e-03 1.648077e+03 -4.004932e+01 2.192372e-03 1.648085e+03 -8.968688e-07 1.408370e-04 -8.413636e-03
0.845          -4.004933e+01 2.328636e-03 1.648077e+03 -4.004933e+01 2.188083e-03 1.648086e+03 -9.025778e-07 1.405533e-04 -8.396381e-03
0.85           -4.004934e+01 2.324054e-03 1.648078e+03 -4.004934e+01 2.183783e-03 1.648086e+03 -9.083164e-07 1.402709e-04 -8.379198e-03
0.855          -4.004934e+01 2.319958e-03 1.648078e+03 -4.004934e+01 2.179968e-03 1.648087e+03 -9.140939e-07 1.399897e-04 -8.362087e-03
0.86           -4.004937e+01 2.315506e-03 1.648080e+03 -4.004937e+01 2.175796e-03 1.648088e+03 -9.198948e-07 1.397097e-04 -8.345047e-03
0.865          -4.004934e+01 2.311814e-03 1.648079e+03 -4.004934e+01 2.172383e-03 1.648087e+03 -9.256317e-07 1.394309e-04 -8.328081e-03
0.87           -4.004935e+01 2.307445e-03 1.648079e+03 -4.004935e+01 2.168292e-03 1.648088e+03 -9.313849e-07 1.391533e-04 -8.311186e-03
0.875          -4.004936e+01 2.303253e-03 1.648080e+03 -4.004936e+01 2.164376e-03 1.648088e+03 -9.371623e-07 1.388769e-04 -8.294361e-03
0.88           -4.004936e+01 2.298861e-03 1.648080e+03 -4.004936e+01 2.160259e-03 1.648089e+03 -9.429595e-07 1.386016e-04 -8.277605e-03
0.885          -4.004937e+01 2.294544e-03 1.648081e+03 -4.004937e+01 2.156217e-03 1.648089e+03 -9.487690e-07 1.383275e-04 -8.260918e-03
0.89           -4.004937e+01 2.290470e-03 1.648081e+03 -4.004937e+01 2.152415e-03 1.648090e+03 -9.545922e-07 1.380546e-04 -8.244301e-03
0.895          -4.004939e+01 2.286571e-03 1.648082e+03 -4.004938e+01 2.148788e-03 1.648090e+03 -9.604437e-07 1.377828e-04 -8.227751e-03
0.9            -4.004939e+01 2.282685e-03 1.648082e+03 -4.004939e+01 2.145173e-03 1.648091e+03 -9.663198e-07 1.375122e-04 -8.211268e-03
0.905          -4.004939e+01 2.278829e-03 1.648082e+03 -4.004938e+01 2.141587e-03 1.648091e+03 -9.721849e-07 1.372427e-04 -8.194854e-03
0.91           -4.004944e+01 2.273785e-03 1.648085e+03 -4.004944e+01 2.136810e-03 1.648093e+03 -9.781259e-07 1.369743e-04 -8.178504e-03
0.915          -4.004943e+01 2.269936e-03 1.648085e+03 -4.004943e+01 2.133229e-03 1.648093e+03 -9.841317e-07 1.367070e-04 -8.162218e-03
0.92           -4.004943e+01 2.265992e-03 1.648085e+03 -4.004943e+01 2.129551e-03 1.648093e+03 -9.901050e-07 1.364408e-04 -8.146001e-03
0.925          -4.004944e+01 2.262205e-03 1.648086e+03 -4.004944e+01 2.126029e-03 1.648094e+03 -9.961082e-07 1.361758e-04 -8.129848e-03
0.93           -4.004944e+01 2.258445e-03 1.648086e+03 -4.004944e+01 2.122533e-03 1.648094e+03 -1.002115e-06 1.359118e-04 -8.113761e-03
0.935          -4.004945e+01 2.254739e-03 1.648087e+03 -4.004945e+01 2.119090e-03 1.648095e+03 -1.008145e-06 1.356489e-04 -8.097738e-03
0.94           -4.004946e+01 2.251098e-03 1.648087e+03 -4.004945e+01 2.115711e-03 1.648095e+03 -1.014198e-06 1.353871e-04 -8.081779e-03
0.945          -4.004946e+01 2.247439e-03 1.648087e+03 -4.004946e+01 2.112312e-03 1.648095e+03 -1.020241e-06 1.351264e-04 -8.065885e-03
0.95           -4.004947e+01 2.243779e-03 1.648088e+03 -4.004947e+01 2.108912e-03 1.648096e+03 -1.026299e-06 1.348668e-04 -8.050054e-03
0.955          -4.004947e+01 2.240141e-03 1.648088e+03 -4.004947e+01 2.105533e-03 1.648096e+03 -1.032372e-06 1.346082e-04 -8.034286e-03
0.96           -4.004948e+01 2.236601e-03 1.648089e+03 -4.004948e+01 2.102250e-03 1.648097e+03 -1.038455e-06 1.343506e-04 -8.018581e-03
0.965          -4.004949e+01 2.233047e-03 1.648089e+03 -4.004948e+01 2.098953e-03 1.648097e+03 -1.044552e-06 1.340941e-04 -8.002938e-03
0.97           -4.004949e+01 2.229553e-03 1.648090e+03 -4.004949e+01 2.095715e-03 1.648098e+03 -1.050667e-06 1.338387e-04 -7.987357e-03
0.975          -4.004950e+01 2.226025e-03 1.648090e+03 -4.004950e+01 2.092441e-03 1.648098e+03 -1.056799e-06 1.335843e-04 -7.971837e-03
0.98           -4.004951e+01 2.222696e-03 1.648091e+03 -4.004950e+01 2.089365e-03 1.648099e+03 -1.062945e-06 1.333309e-04 -7.956378e-03
0.985          -4.004951e+01 2.219268e-03 1.648091e+03 -4.004951e+01 2.086189e-03 1.648099e+03 -1.069096e-06 1.330785e-04 -7.940980e-03
0.99           -4.004951e+01 2.215963e-03 1.648091e+03 -4.004951e+01 2.083136e-03 1.648099e+03 -1.075263e-06 1.328271e-04 -7.925642e-03
0.995          -4.004952e+01 2.212737e-03 1.648092e+03 -4.004952e+01 2.080160e-03 1.648100e+03 -1.081448e-06 1.325768e-04 -7.910363e-03
1              -4.004952e+01 2.209418e-03 1.648092e+03 -4.004952e+01 2.077090e-03 1.648100e+03 -1.087651e-06 1.323274e-04 -7.895143e-03
1.005          -4.004953e+01 2.205883e-03 1.648093e+03 -4.004953e+01 2.073804e-03 1.648101e+03 -1.093858e-06 1.320790e-04 -7.879983e-03
1.01           -4.004953e+01 2.202818e-03 1.648093e+03 -4.004953e+01 2.070986e-03 1.648101e+03 -1.100141e-06 1.318317e-04 -7.864885e-03
1.015          -4.004954e+01 2.199594e-03 1.648094e+03 -4.004954e+01 2.068008e-03 1.648101e+03 -1.107235e-06 1.315869e-04 -7.849902e-03
1.02           -4.004954e+01 2.196617e-03 1.648094e+03 -4.004954e+01 2.065274e-03 1.648102e+03 -1.114094e-06 1.313434e-04 -7.835011e-03
1.025          -4.004955e+01 2.193486e-03 1.648094e+03 -4.004955e+01 2.062385e-03 1.648102e+03 -1.120493e-06 1.311017e-04 -7.820246e-03
1.03           -4.004956e+01 2.190724e-03 1.648095e+03 -4.004956e+01 2.059863e-03 1.648103e+03 -1.126914e-06 1.308610e-04 -7.805536e-03
1.035          -4.004957e+01 2.187849e-03 1.648095e+03 -4.004957e+01 2.057227e-03 1.648103e+03 -1.133372e-06 1.306212e-04 -7.790881e-03
1.04           -4.004957e+01 2.184866e-03 1.648096e+03 -4.004957e+01 2.054484e-03 1.648104e+03 -1.139837e-06 1.303823e-04 -7.776282e-03
1.045          -4.004958e+01 2.182028e-03 1.648096e+03 -4.004958e+01 2.051883e-03 1.648104e+03 -1.146106e-06 1.301444e-04 -7.761749e-03
1.05           -4.004959e+01 2.179840e-03 1.648097e+03 -4.004959e+01 2.049932e-03 1.648104e+03 -1.152338e-06 1.299075e-04 -7.747273e-03
1.055          -4.004957e+01 2.172848e-03 1.648097e+03 -4.004957e+01 2.043176e-03 1.648104e+03 -1.158586e-06 1.296714e-04 -7.732853e-03
1.06           -4.004958e+01 2.170476e-03 1.648097e+03 -4.004958e+01 2.041039e-03 1.648105e+03 -1.164748e-06 1.294363e-04 -7.718491e-03
1.065          -4.004959e+01 2.167691e-03 1.648097e+03 -4.004959e+01 2.038489e-03 1.648105e+03 -1.170937e-06 1.292022e-04 -7.704184e-03
1.07           -4.004959e+01 2.164665e-03 1.648098e+03 -4.004959e+01 2.035696e-03 1.648105e+03 -1.177131e-06 1.289689e-04 -7.689932e-03
1.075          -4.004959e+01 2.161561e-03 1.648098e+03 -4.004959e+01 2.032824e-03 1.648106e+03 -1.183081e-06 1.287366e-04 -7.675746e-03
1.08           -4.004959e+01 2.158534e-03 1.648098e+03 -4.004959e+01 2.030029e-03 1.648106e+03 -1.188803e-06 1.285052e-04 -7.661627e-03
1.085          -4.004962e+01 2.154953e-03 1.648099e+03 -4.004962e+01 2.026677e-03 1.648107e+03 -1.193762e-06 1.282762e-04 -7.647679e-03
1.09           -4.004961e+01 2.152108e-03 1.648099e+03 -4.004961e+01 2.024059e-03 1.648107e+03 -1.198550e-06 1.280485e-04 -7.633812e-03
1.095          -4.004962e+01 2.148772e-03 1.648100e+03 -4.004962e+01 2.020951e-03 1.648108e+03 -1.203332e-06 1.278217e-04 -7.620000e-03